
     Program PWSCF v.6.4 starts on 23Dec2021 at 22:50: 7 

     This program is part of the open-source Quantum ESPRESSO suite
     for quantum simulation of materials; please cite
         "P. Giannozzi et al., J. Phys.:Condens. Matter 21 395502 (2009);
         "P. Giannozzi et al., J. Phys.:Condens. Matter 29 465901 (2017);
          URL http://www.quantum-espresso.org", 
     in publications or presentations arising from this work. More details at
     http://www.quantum-espresso.org/quote

     Parallel version (MPI), running on    40 processors

     MPI processes distributed on     1 nodes
     R & G space division:  proc/nbgrp/npool/nimage =      40
     Waiting for input...
     Reading input from standard input
Warning: card    &IONS ignored
Warning: card      ION_DYNAMICS = 'BFGS' ignored
Warning: card   / ignored
Warning: card    &CELL ignored
Warning: card      CELL_DYNAMICS = 'BFGS', ignored
Warning: card    / ignored

     Current dimensions of program PWSCF are:
     Max number of different atomic species (ntypx) = 10
     Max number of k-points (npk) =  40000
     Max angular momentum in pseudopotentials (lmaxx) =  3

     Subspace diagonalization in iterative solution of the eigenvalue problem:
     one sub-group per band group will be used
     scalapack distributed-memory algorithm (size of sub-group:  4*  4 procs)

 
     Parallelization info
     --------------------
     sticks:   dense  smooth     PW     G-vecs:    dense   smooth      PW
     Min         112      55     15                 9947     3511     495
     Max         113      56     16                 9950     3521     501
     Sum        4481    2235    607               397947   140705   19907
 


     bravais-lattice index     =            0
     lattice parameter (alat)  =      12.5063  a.u.
     unit-cell volume          =    3450.1515 (a.u.)^3
     number of atoms/cell      =           24
     number of atomic types    =            2
     number of electrons       =       144.00
     number of Kohn-Sham states=           86
     kinetic-energy cutoff     =      45.0000  Ry
     charge density cutoff     =     360.0000  Ry
     convergence threshold     =      1.0E-06
     mixing beta               =       0.7000
     number of iterations used =            8  local-TF  mixing
     Exchange-correlation      = SLA PW GGX GGC ( 1  4  2  2 0 0)

     celldm(1)=  12.506274  celldm(2)=   0.000000  celldm(3)=   0.000000
     celldm(4)=   0.000000  celldm(5)=   0.000000  celldm(6)=   0.000000

     crystal axes: (cart. coord. in units of alat)
               a(1) = (   1.000000   0.000000   0.000000 )  
               a(2) = (  -0.278693   0.999590   0.000000 )  
               a(3) = (  -0.255236  -0.348891   1.764544 )  

     reciprocal axes: (cart. coord. in units 2 pi/alat)
               b(1) = (  1.000000  0.278807  0.199774 )  
               b(2) = (  0.000000  1.000410  0.197804 )  
               b(3) = (  0.000000  0.000000  0.566719 )  


     PseudoPot. # 1 for Mo read from file:
     ~/pseudo/Mo.pw91-n-van.UPF
     MD5 check sum: Not computed, couldn't open file
     Pseudo is Ultrasoft + core correction, Zval =  6.0
     Generated by new atomic code, or converted to UPF format
     Using radial grid of  965 points,  3 beta functions with: 
                l(1) =   1
                l(2) =   2
                l(3) =   2
     Q(r) pseudized with  8 coefficients,  rinner =    1.000   1.000   1.000
                                                       1.200   1.200

     PseudoPot. # 2 for S  read from file:
     ~/pseudo/S.pw91-van_ak.UPF
     MD5 check sum: Not computed, couldn't open file
     Pseudo is Ultrasoft, Zval =  6.0
     Generated by new atomic code, or converted to UPF format
     Using radial grid of  811 points,  6 beta functions with: 
                l(1) =   0
                l(2) =   0
                l(3) =   1
                l(4) =   1
                l(5) =   2
                l(6) =   2
     Q(r) pseudized with  8 coefficients,  rinner =    1.100   1.100   1.100
                                                       1.100   1.100

     atomic species   valence    mass     pseudopotential
        Mo             6.00    95.50000     Mo( 1.00)
        S              6.00    32.06500     S ( 1.00)

     No symmetry found



   Cartesian axes

     site n.     atom                  positions (alat units)
         1           Mo  tau(   1) = (   0.4461909   0.4962756   0.2847273  )
         2           Mo  tau(   2) = (   0.5719532   0.7240740   0.6331923  )
         3           Mo  tau(   3) = (   0.4339837  -0.0582054   1.4760568  )
         4           Mo  tau(   4) = (   0.8060349   0.5629300   0.0524927  )
         5           Mo  tau(   5) = (  -0.3046165   0.5318085   1.2264326  )
         6           Mo  tau(   6) = (   0.9333411   0.1269383   0.0163485  )
         7           Mo  tau(   7) = (   0.7211884   0.2752985   0.8331372  )
         8           Mo  tau(   8) = (  -0.1209325  -0.0759967   1.0397840  )
         9           S   tau(   9) = (   0.5278465   0.0435639   1.1301038  )
        10           S   tau(  10) = (  -0.1047514   0.5569186   0.6816037  )
        11           S   tau(  11) = (   0.1205122  -0.1645250   1.2483175  )
        12           S   tau(  12) = (   0.0179776   0.0576746   0.7458050  )
        13           S   tau(  13) = (   0.6317767   0.8242612   0.2806941  )
        14           S   tau(  14) = (   0.7576356   0.3018159   0.2692699  )
        15           S   tau(  15) = (  -0.0612466   0.3043567   1.1552968  )
        16           S   tau(  16) = (   0.4112103   0.3818032   0.6263308  )
        17           S   tau(  17) = (  -0.4297908   0.5168307   1.5527072  )
        18           S   tau(  18) = (   0.1102007   0.6470651   1.6515069  )
        19           S   tau(  19) = (   0.4251289   0.6085191   1.0042412  )
        20           S   tau(  20) = (   0.5779370  -0.0170371   0.6470692  )
        21           S   tau(  21) = (   0.2404159   0.1898145   1.6457696  )
        22           S   tau(  22) = (   0.1353747   0.6706014   0.2430049  )
        23           S   tau(  23) = (  -0.2256430   0.0575142   1.5709053  )
        24           S   tau(  24) = (   0.2609077   0.1911800   0.1740161  )

     number of k points=    10  Marzari-Vanderbilt smearing, width (Ry)=  0.0200
                       cart. coord. in units 2pi/alat
        k(    1) = (   0.0000000   0.0000000   0.0000000), wk =   0.1111111
        k(    2) = (   0.0000000   0.0000000  -0.2833593), wk =   0.1111111
        k(    3) = (   0.0000000   0.3334701   0.0659348), wk =   0.2222222
        k(    4) = (   0.0000000   0.3334701  -0.2174245), wk =   0.2222222
        k(    5) = (   0.3333333   0.0929358   0.0665912), wk =   0.2222222
        k(    6) = (   0.3333333   0.0929358  -0.2167681), wk =   0.2222222
        k(    7) = (   0.3333333   0.4264059   0.1325260), wk =   0.2222222
        k(    8) = (   0.3333333   0.4264059  -0.1508333), wk =   0.2222222
        k(    9) = (   0.3333333  -0.2405344   0.0006564), wk =   0.2222222
        k(   10) = (   0.3333333  -0.2405344  -0.2827029), wk =   0.2222222

     Dense  grid:   397947 G-vectors     FFT dimensions: (  75,  80, 144)

     Smooth grid:   140705 G-vectors     FFT dimensions: (  54,  60, 100)

     Estimated max dynamical RAM per process >      60.09 MB

     Estimated total dynamical RAM >       2.35 GB

     Initial potential from superposition of free atoms

     starting charge  143.98738, renormalised to  144.00000
     Starting wfcs are  136 randomized atomic wfcs

     total cpu time spent up to now is        3.9 secs

     Self-consistent Calculation

     iteration #  1     ecut=    45.00 Ry     beta= 0.70
     Davidson diagonalization with overlap
     ethr =  1.00E-02,  avg # of iterations =  2.0

     total cpu time spent up to now is        8.2 secs

     total energy              =    -561.64155424 Ry
     Harris-Foulkes estimate   =    -563.79173663 Ry
     estimated scf accuracy    <       5.78635295 Ry

     iteration #  2     ecut=    45.00 Ry     beta= 0.70
     Davidson diagonalization with overlap
     ethr =  4.02E-03,  avg # of iterations =  2.0

     total cpu time spent up to now is       12.3 secs

     total energy              =    -562.55109824 Ry
     Harris-Foulkes estimate   =    -562.93299554 Ry
     estimated scf accuracy    <       1.79247730 Ry

     iteration #  3     ecut=    45.00 Ry     beta= 0.70
     Davidson diagonalization with overlap
     ethr =  1.24E-03,  avg # of iterations =  1.1

     total cpu time spent up to now is       15.5 secs

     total energy              =    -562.73539833 Ry
     Harris-Foulkes estimate   =    -562.76749135 Ry
     estimated scf accuracy    <       0.23449341 Ry

     iteration #  4     ecut=    45.00 Ry     beta= 0.70
     Davidson diagonalization with overlap
     ethr =  1.63E-04,  avg # of iterations =  3.0

     total cpu time spent up to now is       19.8 secs

     total energy              =    -562.75748138 Ry
     Harris-Foulkes estimate   =    -562.77863625 Ry
     estimated scf accuracy    <       0.06423821 Ry

     iteration #  5     ecut=    45.00 Ry     beta= 0.70
     Davidson diagonalization with overlap
     ethr =  4.46E-05,  avg # of iterations =  2.7

     total cpu time spent up to now is       23.9 secs

     total energy              =    -562.76678727 Ry
     Harris-Foulkes estimate   =    -562.76962079 Ry
     estimated scf accuracy    <       0.01992611 Ry

     iteration #  6     ecut=    45.00 Ry     beta= 0.70
     Davidson diagonalization with overlap
     ethr =  1.38E-05,  avg # of iterations =  6.6

     total cpu time spent up to now is       28.8 secs

     total energy              =    -562.76792797 Ry
     Harris-Foulkes estimate   =    -562.76878835 Ry
     estimated scf accuracy    <       0.00530004 Ry

     iteration #  7     ecut=    45.00 Ry     beta= 0.70
     Davidson diagonalization with overlap
     c_bands:  1 eigenvalues not converged
     ethr =  3.68E-06,  avg # of iterations = 12.6

     total cpu time spent up to now is       36.4 secs

     total energy              =    -562.76827754 Ry
     Harris-Foulkes estimate   =    -562.76851975 Ry
     estimated scf accuracy    <       0.00108785 Ry

     iteration #  8     ecut=    45.00 Ry     beta= 0.70
     Davidson diagonalization with overlap
     ethr =  7.55E-07,  avg # of iterations =  4.1

     total cpu time spent up to now is       41.1 secs

     total energy              =    -562.76849254 Ry
     Harris-Foulkes estimate   =    -562.76852131 Ry
     estimated scf accuracy    <       0.00047735 Ry

     iteration #  9     ecut=    45.00 Ry     beta= 0.70
     Davidson diagonalization with overlap
     ethr =  3.31E-07,  avg # of iterations =  1.0

     total cpu time spent up to now is       44.2 secs

     total energy              =    -562.76847626 Ry
     Harris-Foulkes estimate   =    -562.76851745 Ry
     estimated scf accuracy    <       0.00024090 Ry

     iteration # 10     ecut=    45.00 Ry     beta= 0.70
     Davidson diagonalization with overlap
     ethr =  1.67E-07,  avg # of iterations =  1.8

     total cpu time spent up to now is       47.6 secs

     total energy              =    -562.76849969 Ry
     Harris-Foulkes estimate   =    -562.76850125 Ry
     estimated scf accuracy    <       0.00001906 Ry

     iteration # 11     ecut=    45.00 Ry     beta= 0.70
     Davidson diagonalization with overlap
     ethr =  1.32E-08,  avg # of iterations =  4.7

     total cpu time spent up to now is       53.7 secs

     total energy              =    -562.76850457 Ry
     Harris-Foulkes estimate   =    -562.76850670 Ry
     estimated scf accuracy    <       0.00001365 Ry

     iteration # 12     ecut=    45.00 Ry     beta= 0.70
     Davidson diagonalization with overlap
     ethr =  9.48E-09,  avg # of iterations =  1.0

     total cpu time spent up to now is       56.9 secs

     total energy              =    -562.76850471 Ry
     Harris-Foulkes estimate   =    -562.76850529 Ry
     estimated scf accuracy    <       0.00000272 Ry

     iteration # 13     ecut=    45.00 Ry     beta= 0.70
     Davidson diagonalization with overlap
     ethr =  1.89E-09,  avg # of iterations =  3.2

     total cpu time spent up to now is       61.7 secs

     total energy              =    -562.76850528 Ry
     Harris-Foulkes estimate   =    -562.76850543 Ry
     estimated scf accuracy    <       0.00000132 Ry

     iteration # 14     ecut=    45.00 Ry     beta= 0.70
     Davidson diagonalization with overlap
     ethr =  9.16E-10,  avg # of iterations =  1.0

     total cpu time spent up to now is       64.8 secs

     End of self-consistent calculation

          k = 0.0000 0.0000 0.0000 ( 17591 PWs)   bands (ev):

    -7.7319  -7.3031  -7.1526  -6.7516  -6.5663  -6.4915  -6.4779  -6.3604
    -6.2311  -6.1196  -6.0586  -5.8578  -5.6451  -5.4282  -5.3745  -5.1203
     0.3909   0.4960   0.6467   0.9411   0.9828   1.0840   1.1591   1.3031
     1.4009   1.5399   1.5804   1.6605   1.8319   1.8650   1.9705   2.0207
     2.1773   2.3003   2.3849   2.4843   2.6423   2.6827   2.7599   2.8441
     2.9145   3.0347   3.1154   3.1740   3.2995   3.3747   3.4032   3.4953
     3.6789   3.8155   3.9813   4.0173   4.1364   4.3087   4.3617   4.5231
     4.5462   4.6100   4.7506   4.7827   4.9549   5.0531   5.1875   5.4118
     5.4177   5.5356   5.7122   5.9382   6.0267   6.1796   6.3762   6.4156
     6.6285   6.6802   6.8760   7.0024   7.1072   7.2109   7.3744   7.4206
     7.4639   7.7395   7.7713   7.8725   8.0309   8.1731

          k = 0.0000 0.0000-0.2834 ( 17618 PWs)   bands (ev):

    -7.6341  -7.5326  -7.0047  -6.7551  -6.5448  -6.5083  -6.4507  -6.3688
    -6.2577  -6.1107  -6.0727  -5.8603  -5.6422  -5.4275  -5.3846  -5.1172
     0.4372   0.4737   0.6508   0.9300   0.9508   1.0515   1.2055   1.2329
     1.3969   1.6031   1.6569   1.7360   1.7693   1.8363   1.9454   2.0480
     2.1763   2.2687   2.3970   2.4937   2.6482   2.6933   2.7158   2.8504
     2.8596   2.9233   3.1170   3.2392   3.3002   3.4035   3.4165   3.4483
     3.5827   3.8941   3.9699   4.1263   4.1914   4.3696   4.3752   4.4519
     4.6209   4.6676   4.7476   4.8387   4.8889   5.0308   5.1470   5.3263
     5.4639   5.5432   5.7037   5.8144   6.0180   6.2842   6.3205   6.4007
     6.5648   6.7503   6.8783   6.9698   7.0823   7.2260   7.4411   7.4625
     7.5315   7.6279   7.8114   7.8817   7.9754   8.1582

          k = 0.0000 0.3335 0.0659 ( 17579 PWs)   bands (ev):

    -7.5294  -7.2475  -7.0135  -6.9056  -6.7143  -6.5920  -6.4709  -6.3863
    -6.2637  -6.1922  -6.0747  -5.8301  -5.7114  -5.3937  -5.3259  -5.1740
     0.5457   0.7148   0.8064   1.0431   1.1162   1.2027   1.2640   1.3956
     1.5037   1.5470   1.6419   1.7465   1.8299   1.8851   2.0373   2.0936
     2.1314   2.2878   2.3485   2.4051   2.4942   2.5820   2.7206   2.7694
     2.8122   2.8997   3.0866   3.1268   3.1805   3.3142   3.3790   3.5423
     3.6233   3.6939   3.7899   3.9850   4.0669   4.2448   4.2993   4.4211
     4.5540   4.6187   4.8225   4.8742   4.9578   5.1279   5.2665   5.3650
     5.4487   5.5584   5.7764   5.8652   6.0261   6.1675   6.2362   6.3976
     6.4578   6.6018   6.8347   6.9434   7.0263   7.1398   7.3260   7.4217
     7.5142   7.5910   7.7640   7.9152   7.9932   8.0507

          k = 0.0000 0.3335-0.2174 ( 17598 PWs)   bands (ev):

    -7.4802  -7.3341  -7.0143  -6.8933  -6.6645  -6.6046  -6.4690  -6.3815
    -6.2771  -6.1915  -6.0742  -5.8303  -5.7100  -5.4111  -5.3170  -5.1724
     0.5427   0.7528   0.8149   0.9889   1.0754   1.2233   1.2834   1.3996
     1.4500   1.5295   1.6873   1.7076   1.8795   1.9343   1.9994   2.0538
     2.2207   2.2468   2.3670   2.4508   2.4962   2.5706   2.5919   2.7706
     2.8585   2.9260   3.0245   3.0903   3.2454   3.3259   3.4467   3.5503
     3.6084   3.7163   3.8297   3.9348   4.0520   4.2297   4.3155   4.4790
     4.5853   4.6571   4.7833   4.8426   4.9710   5.0740   5.1690   5.3786
     5.4394   5.5631   5.7632   5.8948   6.0173   6.1350   6.2403   6.4088
     6.5114   6.6316   6.8162   6.8915   7.1002   7.1782   7.3045   7.4205
     7.4778   7.5356   7.7020   7.8391   7.9835   8.0933

          k = 0.3333 0.0929 0.0666 ( 17562 PWs)   bands (ev):

    -7.5674  -7.2914  -7.0607  -6.7759  -6.6790  -6.5577  -6.5014  -6.3349
    -6.2283  -6.1664  -6.0739  -5.8761  -5.7062  -5.5057  -5.3869  -5.1255
     0.4968   0.6245   0.7635   0.9033   0.9872   1.0817   1.2332   1.3195
     1.4931   1.5900   1.6932   1.7955   1.8738   1.9282   2.0564   2.1340
     2.2330   2.3281   2.4315   2.4812   2.5651   2.6494   2.6842   2.7836
     2.9277   2.9932   3.0503   3.1318   3.2453   3.3027   3.4152   3.5068
     3.6795   3.7433   3.8380   3.9099   3.9961   4.1884   4.4299   4.4791
     4.5519   4.6666   4.7343   4.8283   4.8803   4.9475   5.1232   5.2207
     5.4440   5.5118   5.7155   5.8669   6.0456   6.1078   6.3588   6.4674
     6.6402   6.7925   6.8502   6.9619   7.1499   7.1899   7.3652   7.4591
     7.5724   7.6509   7.7242   7.8238   7.9881   8.0493

          k = 0.3333 0.0929-0.2168 ( 17570 PWs)   bands (ev):

    -7.5037  -7.3931  -7.0634  -6.7497  -6.6463  -6.5727  -6.4347  -6.4027
    -6.2236  -6.1582  -6.0877  -5.8734  -5.7013  -5.5152  -5.3861  -5.1262
     0.4995   0.5983   0.7940   0.9152   1.0294   1.0838   1.1561   1.3148
     1.4871   1.6299   1.6776   1.8010   1.8881   1.9398   1.9964   2.1246
     2.2230   2.3227   2.4201   2.5318   2.5503   2.5978   2.6701   2.8247
     2.8839   3.0190   3.0543   3.1313   3.2423   3.3772   3.4441   3.5849
     3.6122   3.7380   3.8786   3.9719   4.0199   4.1845   4.4321   4.4754
     4.5342   4.6128   4.7409   4.7753   4.8731   4.9636   5.0481   5.2073
     5.4034   5.5297   5.6875   5.9213   6.0197   6.1720   6.3318   6.5211
     6.5593   6.7719   6.8939   6.9909   7.1488   7.1987   7.3562   7.4800
     7.5805   7.6328   7.7114   7.8207   7.9028   7.9898

          k = 0.3333 0.4264 0.1325 ( 17615 PWs)   bands (ev):

    -7.3223  -7.2559  -6.9664  -6.9019  -6.7601  -6.6621  -6.5167  -6.3441
    -6.2813  -6.2598  -6.0668  -5.8598  -5.7390  -5.4991  -5.3640  -5.1734
     0.6703   0.7662   0.8731   1.0086   1.0733   1.2769   1.3284   1.4132
     1.5093   1.6708   1.7175   1.8180   1.9060   1.9585   2.0272   2.1040
     2.2041   2.2779   2.3513   2.4474   2.5798   2.6021   2.6532   2.7633
     2.8449   2.9125   2.9677   3.1215   3.1871   3.2677   3.3711   3.4156
     3.6144   3.6532   3.8456   3.8669   3.9738   4.1547   4.2096   4.4432
     4.4919   4.6249   4.7913   4.8653   4.9357   4.9876   5.2159   5.2607
     5.4008   5.5970   5.6771   5.8030   6.0233   6.1556   6.3176   6.4007
     6.5917   6.6476   6.8452   7.0264   7.0507   7.1709   7.2635   7.3606
     7.5027   7.6079   7.6836   7.8823   7.9904   8.0780

          k = 0.3333 0.4264-0.1508 ( 17580 PWs)   bands (ev):

    -7.3352  -7.2054  -7.0184  -6.9084  -6.7858  -6.6460  -6.4688  -6.3481
    -6.2996  -6.2472  -6.0739  -5.8606  -5.7334  -5.5055  -5.3551  -5.1805
     0.5987   0.8360   0.9399   1.0276   1.1012   1.1978   1.3140   1.4044
     1.4952   1.5902   1.6887   1.7650   1.8694   2.0160   2.0983   2.1601
     2.2190   2.2517   2.3506   2.4651   2.5337   2.5847   2.6842   2.7511
     2.8715   2.9077   3.0429   3.0902   3.2347   3.3138   3.3533   3.4164
     3.6258   3.6854   3.8145   3.8428   3.9677   4.1214   4.2185   4.4658
     4.5771   4.6465   4.7283   4.8052   4.8812   5.0320   5.1364   5.2580
     5.3850   5.6083   5.7187   5.8591   6.0210   6.1547   6.2317   6.3703
     6.5980   6.7283   6.8743   6.9359   7.0076   7.1194   7.2725   7.3922
     7.4584   7.6479   7.7737   7.8903   7.9200   8.0938

          k = 0.3333-0.2405 0.0007 ( 17581 PWs)   bands (ev):

    -7.4529  -7.1806  -7.0160  -6.8727  -6.7062  -6.6072  -6.4873  -6.3877
    -6.2631  -6.2260  -6.1113  -5.8575  -5.7250  -5.5004  -5.3419  -5.2111
     0.6105   0.7599   0.8540   0.9851   1.0943   1.1883   1.2942   1.3743
     1.4602   1.5350   1.6632   1.7522   1.8940   2.0191   2.0522   2.0916
     2.2068   2.3751   2.4219   2.4651   2.5504   2.5767   2.6480   2.7500
     2.8689   2.8993   3.0492   3.1356   3.2277   3.3797   3.4201   3.5423
     3.6627   3.7229   3.8001   3.9334   4.0149   4.1576   4.2394   4.3661
     4.5361   4.6527   4.7308   4.8108   4.9257   5.0010   5.0954   5.2691
     5.4064   5.6315   5.7458   5.8665   5.9960   6.1661   6.2285   6.3512
     6.6779   6.6994   6.7865   6.8954   7.1344   7.2221   7.2756   7.3937
     7.5155   7.6475   7.7522   7.9177   7.9667   8.0054

          k = 0.3333-0.2405-0.2827 ( 17601 PWs)   bands (ev):

    -7.3740  -7.3138  -6.9861  -6.8795  -6.6882  -6.5512  -6.5064  -6.3942
    -6.2800  -6.2071  -6.1294  -5.8603  -5.7218  -5.4848  -5.3626  -5.2078
     0.6680   0.7739   0.7886   1.0134   1.0908   1.1929   1.2932   1.4105
     1.4328   1.4863   1.6275   1.7732   1.9131   1.9443   1.9618   2.1809
     2.2259   2.3345   2.3590   2.4494   2.5429   2.6433   2.6712   2.7881
     2.8737   2.9079   3.0355   3.2302   3.2547   3.3528   3.4627   3.5930
     3.6147   3.7196   3.8339   3.9152   4.0428   4.1125   4.2824   4.4329
     4.5711   4.6042   4.6741   4.7736   4.8628   5.0331   5.0724   5.1753
     5.4307   5.5848   5.7470   5.8803   6.0322   6.1510   6.2675   6.3754
     6.5909   6.7506   6.9068   6.9564   7.0018   7.1649   7.2756   7.4143
     7.4831   7.6385   7.7300   7.8623   7.9434   8.1163

     the Fermi energy is     6.4914 ev

!    total energy              =    -562.76850503 Ry
     Harris-Foulkes estimate   =    -562.76850536 Ry
     estimated scf accuracy    <       0.00000038 Ry

     The total energy is the sum of the following terms:

     one-electron contribution =       3.81978638 Ry
     hartree contribution      =      78.84054357 Ry
     xc contribution           =    -221.92726434 Ry
     ewald contribution        =    -423.50292097 Ry
     smearing contrib. (-TS)   =       0.00135033 Ry

     convergence has been achieved in  14 iterations

     Forces acting on atoms (cartesian axes, Ry/au):

     atom    1 type  1   force =    -0.05618464    0.01047916   -0.01680252
     atom    2 type  1   force =    -0.01400433   -0.02797829    0.02469952
     atom    3 type  1   force =     0.02329647    0.06421066    0.01086594
     atom    4 type  1   force =     0.09076095    0.00770100   -0.06864130
     atom    5 type  1   force =    -0.06850436   -0.03061903    0.00464024
     atom    6 type  1   force =     0.08156649    0.07524757   -0.00054558
     atom    7 type  1   force =     0.00811019    0.00995969   -0.01593308
     atom    8 type  1   force =    -0.09885903    0.02663843   -0.04255463
     atom    9 type  2   force =     0.01558871    0.00511052   -0.00438775
     atom   10 type  2   force =    -0.01972576   -0.00277633    0.00916520
     atom   11 type  2   force =     0.10020822    0.01798390    0.07885825
     atom   12 type  2   force =    -0.00663629   -0.00145348    0.00248194
     atom   13 type  2   force =     0.00393312   -0.04090104    0.00352076
     atom   14 type  2   force =    -0.01200649   -0.02969100    0.06812729
     atom   15 type  2   force =     0.02690064   -0.02517209   -0.03169914
     atom   16 type  2   force =    -0.00229397    0.03097344   -0.01438892
     atom   17 type  2   force =     0.01984433    0.00134966   -0.00159997
     atom   18 type  2   force =    -0.07464627   -0.02641354   -0.02677978
     atom   19 type  2   force =     0.02040836    0.02206946   -0.00064577
     atom   20 type  2   force =     0.03740557   -0.00745653    0.01114042
     atom   21 type  2   force =    -0.02138187   -0.03122141   -0.01166939
     atom   22 type  2   force =    -0.02281951   -0.00991769   -0.00930006
     atom   23 type  2   force =    -0.03414378   -0.02820051    0.01011287
     atom   24 type  2   force =     0.00318325   -0.00992255    0.02133546

     Total force =     0.310943     Total SCF correction =     0.001282
 
     init_run     :      2.93s CPU      3.05s WALL (       1 calls)
     electrons    :     59.77s CPU     60.96s WALL (       1 calls)
     forces       :      1.28s CPU      1.31s WALL (       1 calls)

     Called by init_run:
     wfcinit      :      1.93s CPU      2.00s WALL (       1 calls)
     potinit      :      0.26s CPU      0.28s WALL (       1 calls)
     hinit0       :      0.43s CPU      0.44s WALL (       1 calls)

     Called by electrons:
     c_bands      :     49.08s CPU     50.00s WALL (      14 calls)
     sum_band     :      8.15s CPU      8.36s WALL (      14 calls)
     v_of_rho     :      0.43s CPU      0.46s WALL (      15 calls)
     newd         :      1.80s CPU      1.83s WALL (      15 calls)
     mix_rho      :      0.36s CPU      0.37s WALL (      14 calls)

     Called by c_bands:
     init_us_2    :      1.18s CPU      1.19s WALL (     300 calls)
     cegterg      :     45.47s CPU     46.36s WALL (     140 calls)

     Called by sum_band:
     sum_band:bec :      0.09s CPU      0.09s WALL (     140 calls)
     addusdens    :      2.53s CPU      2.57s WALL (      14 calls)

     Called by *egterg:
     h_psi        :     23.48s CPU     24.17s WALL (     618 calls)
     s_psi        :      3.42s CPU      3.44s WALL (     618 calls)
     g_psi        :      0.08s CPU      0.08s WALL (     468 calls)
     cdiaghg      :     13.45s CPU     13.65s WALL (     608 calls)

     Called by h_psi:
     h_psi:pot    :     23.36s CPU     24.05s WALL (     618 calls)
     h_psi:calbec :      3.84s CPU      4.03s WALL (     618 calls)
     vloc_psi     :     16.01s CPU     16.50s WALL (     618 calls)
     add_vuspsi   :      3.50s CPU      3.51s WALL (     618 calls)

     General routines
     calbec       :      5.54s CPU      5.82s WALL (     798 calls)
     fft          :      0.42s CPU      0.46s WALL (     204 calls)
     ffts         :      0.19s CPU      0.19s WALL (     322 calls)
     fftw         :     17.99s CPU     18.53s WALL (   71782 calls)
     interpolate  :      0.04s CPU      0.04s WALL (      15 calls)
 
     Parallel routines
     fft_scatt_xy :      1.88s CPU      1.93s WALL (   72308 calls)
     fft_scatt_yz :      9.06s CPU      9.36s WALL (   72308 calls)
 
     PWSCF        :   1m 4.78s CPU   1m 6.20s WALL

 
   This run was terminated on:  22:51:13  23Dec2021            

=------------------------------------------------------------------------------=
   JOB DONE.
=------------------------------------------------------------------------------=
