
     Program PWSCF v.6.4 starts on 19Nov2021 at 18:11:57 

     This program is part of the open-source Quantum ESPRESSO suite
     for quantum simulation of materials; please cite
         "P. Giannozzi et al., J. Phys.:Condens. Matter 21 395502 (2009);
         "P. Giannozzi et al., J. Phys.:Condens. Matter 29 465901 (2017);
          URL http://www.quantum-espresso.org", 
     in publications or presentations arising from this work. More details at
     http://www.quantum-espresso.org/quote

     Parallel version (MPI), running on    40 processors

     MPI processes distributed on     1 nodes
     R & G space division:  proc/nbgrp/npool/nimage =      40
     Waiting for input...
     Reading input from standard input
Warning: card    &IONS ignored
Warning: card      ION_DYNAMICS = 'BFGS' ignored
Warning: card   / ignored
Warning: card    &CELL ignored
Warning: card      CELL_DYNAMICS = 'BFGS', ignored
Warning: card    / ignored

     Current dimensions of program PWSCF are:
     Max number of different atomic species (ntypx) = 10
     Max number of k-points (npk) =  40000
     Max angular momentum in pseudopotentials (lmaxx) =  3

     Subspace diagonalization in iterative solution of the eigenvalue problem:
     one sub-group per band group will be used
     scalapack distributed-memory algorithm (size of sub-group:  4*  4 procs)

 
     Parallelization info
     --------------------
     sticks:   dense  smooth     PW     G-vecs:    dense   smooth      PW
     Min         179      89     24                18656     6591     919
     Max         180      90     25                18664     6597     925
     Sum        7177    3581    967               746363   263767   36873
 


     bravais-lattice index     =            0
     lattice parameter (alat)  =      12.0991  a.u.
     unit-cell volume          =    6469.1601 (a.u.)^3
     number of atoms/cell      =           36
     number of atomic types    =            2
     number of electrons       =       216.00
     number of Kohn-Sham states=          130
     kinetic-energy cutoff     =      45.0000  Ry
     charge density cutoff     =     360.0000  Ry
     convergence threshold     =      1.0E-06
     mixing beta               =       0.7000
     number of iterations used =            8  local-TF  mixing
     Exchange-correlation      = SLA PW GGX GGC ( 1  4  2  2 0 0)

     celldm(1)=  12.099077  celldm(2)=   0.000000  celldm(3)=   0.000000
     celldm(4)=   0.000000  celldm(5)=   0.000000  celldm(6)=   0.000000

     crystal axes: (cart. coord. in units of alat)
               a(1) = (   1.000000   0.000000   0.000000 )  
               a(2) = (   0.010592   1.709908   0.000000 )  
               a(3) = (   0.384988   0.717211   2.136084 )  

     reciprocal axes: (cart. coord. in units 2 pi/alat)
               b(1) = (  1.000000 -0.006195 -0.178151 )  
               b(2) = (  0.000000  0.584827 -0.196361 )  
               b(3) = (  0.000000  0.000000  0.468146 )  


     PseudoPot. # 1 for Mo read from file:
     ~/pseudo/Mo.pw91-n-van.UPF
     MD5 check sum: Not computed, couldn't open file
     Pseudo is Ultrasoft + core correction, Zval =  6.0
     Generated by new atomic code, or converted to UPF format
     Using radial grid of  965 points,  3 beta functions with: 
                l(1) =   1
                l(2) =   2
                l(3) =   2
     Q(r) pseudized with  8 coefficients,  rinner =    1.000   1.000   1.000
                                                       1.200   1.200

     PseudoPot. # 2 for S  read from file:
     ~/pseudo/S.pw91-van_ak.UPF
     MD5 check sum: Not computed, couldn't open file
     Pseudo is Ultrasoft, Zval =  6.0
     Generated by new atomic code, or converted to UPF format
     Using radial grid of  811 points,  6 beta functions with: 
                l(1) =   0
                l(2) =   0
                l(3) =   1
                l(4) =   1
                l(5) =   2
                l(6) =   2
     Q(r) pseudized with  8 coefficients,  rinner =    1.100   1.100   1.100
                                                       1.100   1.100

     atomic species   valence    mass     pseudopotential
        Mo             6.00    95.50000     Mo( 1.00)
        S              6.00    32.06500     S ( 1.00)

     No symmetry found



   Cartesian axes

     site n.     atom                  positions (alat units)
         1           Mo  tau(   1) = (   1.0566844   0.7812414   1.4413478  )
         2           Mo  tau(   2) = (   0.3150223   2.0631201   1.4454269  )
         3           Mo  tau(   3) = (   0.5568793   0.7811686   1.4406266  )
         4           Mo  tau(   4) = (   0.8151598   2.0632661   1.4454251  )
         5           Mo  tau(   5) = (   0.5629225   1.6362061   1.4499167  )
         6           Mo  tau(   6) = (   1.0629122   1.6363927   1.4504423  )
         7           Mo  tau(   7) = (   0.8096443   1.2082714   1.4474931  )
         8           Mo  tau(   8) = (   0.3101828   1.2085407   1.4478201  )
         9           Mo  tau(   9) = (   0.1352943   1.4689682   0.3335367  )
        10           Mo  tau(  10) = (   0.5936108   1.4703973   0.3291363  )
        11           Mo  tau(  11) = (   0.6160548   0.1956568   0.3487052  )
        12           Mo  tau(  12) = (   1.0701935   0.1900177   0.3457127  )
        13           S   tau(  13) = (   0.3064727   0.6403750   1.6880047  )
        14           S   tau(  14) = (   1.0596348   1.0639307   1.6947074  )
        15           S   tau(  15) = (   0.8062135   0.6406413   1.6910644  )
        16           S   tau(  16) = (   0.5595816   1.0631074   1.6941903  )
        17           S   tau(  17) = (   0.3390192   0.4330384   0.3908827  )
        18           S   tau(  18) = (   0.8436769   0.2447509   0.6330732  )
        19           S   tau(  19) = (   0.3062079   0.6386047   1.1930210  )
        20           S   tau(  20) = (   1.0595801   1.0703788   1.1965552  )
        21           S   tau(  21) = (   0.8063196   0.6380433   1.1928036  )
        22           S   tau(  22) = (   0.5588778   1.0700696   1.1960413  )
        23           S   tau(  23) = (   0.3570371   1.7294690   0.1169360  )
        24           S   tau(  24) = (   0.8433549   0.3209791   0.1047663  )
        25           S   tau(  25) = (   0.5652322   1.9227200   1.6958852  )
        26           S   tau(  26) = (   1.0648567   1.9232428   1.6961347  )
        27           S   tau(  27) = (   0.5646034   1.9216536   1.1982593  )
        28           S   tau(  28) = (   1.0647325   1.9214240   1.1983519  )
        29           S   tau(  29) = (   0.8128690   1.4968405   1.2004610  )
        30           S   tau(  30) = (   0.3123081   1.4967396   1.2005367  )
        31           S   tau(  31) = (   0.8616648   1.6379381   0.5663625  )
        32           S   tau(  32) = (   0.3683958   1.3213843   0.5624363  )
        33           S   tau(  33) = (   0.8125067   1.4926925   1.6984875  )
        34           S   tau(  34) = (   1.3127246   1.4930155   1.6989856  )
        35           S   tau(  35) = (   0.8652757   1.2386181   0.2543253  )
        36           S   tau(  36) = (   0.3636802   1.4134612   0.0481827  )

     number of k points=     8  Marzari-Vanderbilt smearing, width (Ry)=  0.0200
                       cart. coord. in units 2pi/alat
        k(    1) = (   0.0000000   0.0000000   0.0000000), wk =   0.1666667
        k(    2) = (   0.0000000   0.0000000  -0.2340732), wk =   0.1666667
        k(    3) = (   0.0000000  -0.2924134   0.0981806), wk =   0.1666667
        k(    4) = (   0.0000000  -0.2924134  -0.1358926), wk =   0.1666667
        k(    5) = (   0.3333333  -0.0020649  -0.0593837), wk =   0.3333333
        k(    6) = (   0.3333333  -0.0020649  -0.2934568), wk =   0.3333333
        k(    7) = (   0.3333333  -0.2944782   0.0387969), wk =   0.3333333
        k(    8) = (   0.3333333  -0.2944782  -0.1952763), wk =   0.3333333

     Dense  grid:   746363 G-vectors     FFT dimensions: (  75, 125, 180)

     Smooth grid:   263767 G-vectors     FFT dimensions: (  54,  90, 120)

     Estimated max dynamical RAM per process >     122.86 MB

     Estimated total dynamical RAM >       4.80 GB

     Initial potential from superposition of free atoms

     starting charge  215.98107, renormalised to  216.00000
     Starting wfcs are  204 randomized atomic wfcs

     total cpu time spent up to now is        6.9 secs

     Self-consistent Calculation

     iteration #  1     ecut=    45.00 Ry     beta= 0.70
     Davidson diagonalization with overlap
     ethr =  1.00E-02,  avg # of iterations =  2.2

     total cpu time spent up to now is       18.1 secs

     total energy              =    -843.81856671 Ry
     Harris-Foulkes estimate   =    -846.01950187 Ry
     estimated scf accuracy    <       5.70622427 Ry

     iteration #  2     ecut=    45.00 Ry     beta= 0.70
     Davidson diagonalization with overlap
     ethr =  2.64E-03,  avg # of iterations =  2.8

     total cpu time spent up to now is       28.3 secs

     total energy              =    -844.82426015 Ry
     Harris-Foulkes estimate   =    -844.95735159 Ry
     estimated scf accuracy    <       0.69647851 Ry

     iteration #  3     ecut=    45.00 Ry     beta= 0.70
     Davidson diagonalization with overlap
     ethr =  3.22E-04,  avg # of iterations =  2.1

     total cpu time spent up to now is       37.2 secs

     total energy              =    -844.82887607 Ry
     Harris-Foulkes estimate   =    -844.89324245 Ry
     estimated scf accuracy    <       0.19033665 Ry

     iteration #  4     ecut=    45.00 Ry     beta= 0.70
     Davidson diagonalization with overlap
     ethr =  8.81E-05,  avg # of iterations =  4.2

     total cpu time spent up to now is       49.7 secs

     total energy              =    -844.86932114 Ry
     Harris-Foulkes estimate   =    -844.88453937 Ry
     estimated scf accuracy    <       0.10186705 Ry

     iteration #  5     ecut=    45.00 Ry     beta= 0.70
     Davidson diagonalization with overlap
     ethr =  4.72E-05,  avg # of iterations =  1.5

     total cpu time spent up to now is       58.1 secs

     total energy              =    -844.86869778 Ry
     Harris-Foulkes estimate   =    -844.87632669 Ry
     estimated scf accuracy    <       0.02690094 Ry

     iteration #  6     ecut=    45.00 Ry     beta= 0.70
     Davidson diagonalization with overlap
     ethr =  1.25E-05,  avg # of iterations =  9.2

     total cpu time spent up to now is       73.6 secs

     total energy              =    -844.87403163 Ry
     Harris-Foulkes estimate   =    -844.87504484 Ry
     estimated scf accuracy    <       0.00915177 Ry

     iteration #  7     ecut=    45.00 Ry     beta= 0.70
     Davidson diagonalization with overlap
     ethr =  4.24E-06,  avg # of iterations =  2.9

     total cpu time spent up to now is       82.7 secs

     total energy              =    -844.87291386 Ry
     Harris-Foulkes estimate   =    -844.87437590 Ry
     estimated scf accuracy    <       0.00494390 Ry

     iteration #  8     ecut=    45.00 Ry     beta= 0.70
     Davidson diagonalization with overlap
     ethr =  2.29E-06,  avg # of iterations =  9.6

     total cpu time spent up to now is       97.6 secs

     total energy              =    -844.87342391 Ry
     Harris-Foulkes estimate   =    -844.87374994 Ry
     estimated scf accuracy    <       0.00098349 Ry

     iteration #  9     ecut=    45.00 Ry     beta= 0.70
     Davidson diagonalization with overlap
     ethr =  4.55E-07,  avg # of iterations =  4.4

     total cpu time spent up to now is      108.6 secs

     total energy              =    -844.87357912 Ry
     Harris-Foulkes estimate   =    -844.87361950 Ry
     estimated scf accuracy    <       0.00076476 Ry

     iteration # 10     ecut=    45.00 Ry     beta= 0.70
     Davidson diagonalization with overlap
     ethr =  3.54E-07,  avg # of iterations =  1.0

     total cpu time spent up to now is      116.7 secs

     total energy              =    -844.87344235 Ry
     Harris-Foulkes estimate   =    -844.87360861 Ry
     estimated scf accuracy    <       0.00087201 Ry

     iteration # 11     ecut=    45.00 Ry     beta= 0.70
     Davidson diagonalization with overlap
     ethr =  3.54E-07,  avg # of iterations =  1.8

     total cpu time spent up to now is      125.2 secs

     total energy              =    -844.87336524 Ry
     Harris-Foulkes estimate   =    -844.87348414 Ry
     estimated scf accuracy    <       0.00032469 Ry

     iteration # 12     ecut=    45.00 Ry     beta= 0.70
     Davidson diagonalization with overlap
     ethr =  1.50E-07,  avg # of iterations =  8.5

     total cpu time spent up to now is      141.2 secs

     total energy              =    -844.87336122 Ry
     Harris-Foulkes estimate   =    -844.87346507 Ry
     estimated scf accuracy    <       0.00041512 Ry

     iteration # 13     ecut=    45.00 Ry     beta= 0.70
     Davidson diagonalization with overlap
     ethr =  1.50E-07,  avg # of iterations =  2.6

     total cpu time spent up to now is      150.5 secs

     total energy              =    -844.87337430 Ry
     Harris-Foulkes estimate   =    -844.87339430 Ry
     estimated scf accuracy    <       0.00005099 Ry

     iteration # 14     ecut=    45.00 Ry     beta= 0.70
     Davidson diagonalization with overlap
     ethr =  2.36E-08,  avg # of iterations =  3.9

     total cpu time spent up to now is      163.0 secs

     total energy              =    -844.87338144 Ry
     Harris-Foulkes estimate   =    -844.87339329 Ry
     estimated scf accuracy    <       0.00005402 Ry

     iteration # 15     ecut=    45.00 Ry     beta= 0.70
     Davidson diagonalization with overlap
     ethr =  2.36E-08,  avg # of iterations =  2.0

     total cpu time spent up to now is      171.8 secs

     total energy              =    -844.87338452 Ry
     Harris-Foulkes estimate   =    -844.87338616 Ry
     estimated scf accuracy    <       0.00000434 Ry

     iteration # 16     ecut=    45.00 Ry     beta= 0.70
     Davidson diagonalization with overlap
     ethr =  2.01E-09,  avg # of iterations =  4.0

     total cpu time spent up to now is      185.3 secs

     total energy              =    -844.87338517 Ry
     Harris-Foulkes estimate   =    -844.87338678 Ry
     estimated scf accuracy    <       0.00000596 Ry

     iteration # 17     ecut=    45.00 Ry     beta= 0.70
     Davidson diagonalization with overlap
     ethr =  2.01E-09,  avg # of iterations =  3.0

     total cpu time spent up to now is      195.1 secs

     End of self-consistent calculation

          k = 0.0000 0.0000 0.0000 ( 32959 PWs)   bands (ev):

   -12.1759 -11.8966 -10.5612  -9.7472  -9.7420  -9.3902  -8.9823  -8.9784
    -8.7797  -8.7670  -8.7344  -8.7119  -8.6855  -8.5426  -8.5214  -8.5013
    -8.4935  -8.4764  -8.4674  -8.3452  -8.0568  -7.9960  -7.8756  -7.5437
    -2.2551  -2.2300  -2.2116  -2.2023  -2.1854  -2.0425  -1.8567  -1.5232
    -1.5104  -1.4250  -1.4048  -1.2988  -1.2947  -1.2910  -1.2857  -1.2591
    -1.2450  -1.0665  -0.9628  -0.5302  -0.5263  -0.5084  -0.2805  -0.2036
    -0.1779  -0.0593  -0.0516   0.0118   0.0500   0.0887   0.1344   0.2858
     0.2923   0.3568   0.3900   0.4593   0.5383   0.6002   0.6231   0.6274
     0.6894   0.7573   0.8176   0.8407   0.9482   1.0695   1.0747   1.0873
     1.0948   1.3229   1.3650   1.4677   1.5568   1.5807   1.6274   1.6401
     1.7836   1.8071   1.8086   1.8149   1.8314   2.0863   2.1626   2.1804
     2.2039   2.4017   2.5087   2.6029   2.6898   2.7524   2.7611   2.7628
     2.8044   2.8447   2.8911   3.0663   3.0838   3.3074   3.4605   3.5983
     3.6273   3.9797   4.2241   4.2547   4.5428   4.6018   5.0939   5.3959
     5.5519   5.5916   5.6024   5.6148   5.6609   5.6656   5.6803   5.7414
     5.7507   5.7750   5.9237   5.9760   5.9876   6.0891   6.1576   6.1620
     6.1641   6.1797

          k = 0.0000 0.0000-0.2341 ( 32930 PWs)   bands (ev):

   -12.1758 -11.8967 -10.5611  -9.7472  -9.7420  -9.3902  -8.9820  -8.9784
    -8.7796  -8.7670  -8.7344  -8.7119  -8.6855  -8.5426  -8.5214  -8.5016
    -8.4936  -8.4803  -8.4634  -8.3452  -8.0571  -7.9960  -7.8758  -7.5431
    -2.2838  -2.2466  -2.2109  -2.1921  -2.1785  -2.0002  -1.8589  -1.5140
    -1.5054  -1.4411  -1.3887  -1.3347  -1.2967  -1.2913  -1.2869  -1.2605
    -1.2260  -1.0703  -0.9693  -0.5301  -0.5270  -0.5100  -0.2759  -0.1838
    -0.1509  -0.0860  -0.0419  -0.0337   0.0502   0.1109   0.1131   0.2896
     0.3002   0.3568   0.3831   0.4594   0.5389   0.6034   0.6217   0.6289
     0.6899   0.7566   0.8178   0.8425   0.9482   1.0676   1.0698   1.0754
     1.0949   1.3395   1.3938   1.5293   1.5326   1.5773   1.6140   1.6350
     1.7679   1.7988   1.8070   1.8086   1.8150   2.0863   2.1656   2.1870
     2.2040   2.4039   2.5095   2.6028   2.6898   2.7517   2.7607   2.7636
     2.8026   2.8419   2.8922   3.0657   3.0840   3.3534   3.4195   3.5988
     3.6374   3.9736   4.2233   4.2476   4.5435   4.6018   5.0774   5.3933
     5.5838   5.5923   5.5981   5.6160   5.6610   5.6659   5.6807   5.7412
     5.7515   5.7702   5.9235   5.9787   5.9876   6.0675   6.1576   6.1627
     6.1737   6.1818

          k = 0.0000-0.2924 0.0982 ( 32924 PWs)   bands (ev):

   -12.1759 -11.8966 -10.3512 -10.3248  -9.2898  -9.2695  -9.0411  -9.0258
    -8.7744  -8.7576  -8.7372  -8.7238  -8.6381  -8.6272  -8.5350  -8.5262
    -8.5057  -8.4912  -8.4761  -8.3446  -8.0567  -7.9962  -7.8761  -7.5434
    -2.2358  -2.2285  -1.9260  -1.9150  -1.8932  -1.8822  -1.8558  -1.8440
    -1.8302  -1.8224  -1.7718  -1.3092  -1.3028  -1.2862  -1.2699  -1.2542
    -1.0683  -0.9809  -0.9105  -0.8835  -0.4119  -0.4084  -0.3915  -0.3848
    -0.3718  -0.3637  -0.2040   0.0327   0.1257   0.3259   0.3839   0.4014
     0.4228   0.4517   0.5343   0.5617   0.5883   0.6067   0.6089   0.6873
     0.7519   0.7853   0.8411   0.9944   1.0450   1.1354   1.1929   1.2161
     1.3529   1.3954   1.4765   1.5614   1.6331   1.6493   1.6571   1.6702
     1.6748   1.6848   1.7052   1.7209   1.7305   1.7441   1.7494   1.7717
     2.3819   2.3882   2.4042   2.4741   2.5010   2.5321   2.6000   2.6106
     3.0652   3.0829   3.0917   3.0966   3.2285   3.2553   3.4430   3.5984
     3.6266   3.9796   4.2261   4.2645   4.5406   4.5997   5.1033   5.3989
     5.6139   5.6241   5.6661   5.6711   5.6790   5.6844   5.7592   5.8460
     5.8968   5.9085   5.9254   5.9348   5.9878   6.0071   6.0648   6.0876
     6.1278   6.1319

          k = 0.0000-0.2924-0.1359 ( 32906 PWs)   bands (ev):

   -12.1758 -11.8967 -10.3511 -10.3248  -9.2899  -9.2696  -9.0412  -9.0260
    -8.7744  -8.7576  -8.7372  -8.7238  -8.6378  -8.6258  -8.5351  -8.5261
    -8.5056  -8.4916  -8.4772  -8.3447  -8.0568  -7.9962  -7.8762  -7.5428
    -2.2591  -2.2361  -1.9332  -1.9038  -1.8929  -1.8789  -1.8445  -1.8378
    -1.8249  -1.7878  -1.7633  -1.3743  -1.2996  -1.2868  -1.2679  -1.2410
    -1.0689  -0.9867  -0.9071  -0.8664  -0.4264  -0.4069  -0.3927  -0.3842
    -0.3777  -0.3685  -0.1944   0.0273   0.1123   0.3498   0.3865   0.3952
     0.4249   0.4419   0.5347   0.5616   0.5879   0.6065   0.6090   0.6881
     0.7540   0.8093   0.8404   0.9612   1.0298   1.1778   1.1937   1.2161
     1.3515   1.3757   1.5176   1.5905   1.6341   1.6425   1.6500   1.6601
     1.6778   1.6852   1.6887   1.6933   1.7304   1.7409   1.7494   1.7834
     2.3819   2.3930   2.4039   2.4751   2.4981   2.5236   2.6004   2.6105
     3.0661   3.0832   3.0910   3.0972   3.2489   3.2578   3.4237   3.5980
     3.6256   3.9818   4.2267   4.2627   4.5409   4.5997   5.0956   5.3961
     5.6141   5.6240   5.6657   5.6723   5.6747   5.6777   5.7596   5.8310
     5.8827   5.9153   5.9342   5.9416   5.9809   6.0153   6.0606   6.0973
     6.1280   6.1304

          k = 0.3333-0.0021-0.0594 ( 32982 PWs)   bands (ev):

   -12.1058 -11.9577 -10.2752  -9.5450  -9.5281  -9.5155  -9.2503  -9.0333
    -9.0110  -8.8928  -8.8795  -8.8660  -8.6588  -8.6323  -8.5780  -8.4545
    -8.3965  -8.3544  -8.3253  -8.2739  -8.1050  -8.0881  -7.8193  -7.6483
    -2.1633  -2.1313  -1.8438  -1.8219  -1.8001  -1.7867  -1.7682  -1.6759
    -1.5355  -1.4501  -1.3374  -1.3106  -1.2660  -1.1773  -1.1050  -1.0293
    -0.9335  -0.9154  -0.5008  -0.3991  -0.3647  -0.3443  -0.2659  -0.2485
    -0.2385  -0.1291  -0.0608  -0.0391  -0.0181   0.0362   0.1919   0.3150
     0.3325   0.3614   0.3807   0.3852   0.4019   0.4239   0.4528   0.4755
     0.5328   0.6005   0.6446   0.7198   0.8792   0.9039   0.9486   0.9665
     1.1829   1.2763   1.3821   1.3929   1.4444   1.4603   1.6017   1.6200
     1.6295   1.6527   1.6696   1.7268   1.8169   1.8460   1.8769   1.9951
     2.0090   2.0615   2.4217   2.4348   2.4390   2.5486   2.6966   2.7128
     2.7376   2.7750   2.7961   3.1591   3.2369   3.2973   3.3612   3.5090
     3.7223   3.8228   4.0103   4.4181   4.8996   5.1121   5.1966   5.2561
     5.2875   5.3339   5.3465   5.3554   5.4839   5.5801   5.5992   5.6337
     5.7320   5.7923   5.8443   5.8810   5.8975   5.9167   5.9571   5.9746
     6.0114   6.0278

          k = 0.3333-0.0021-0.2935 ( 32973 PWs)   bands (ev):

   -12.1057 -11.9578 -10.2752  -9.5450  -9.5282  -9.5155  -9.2503  -9.0333
    -9.0111  -8.8928  -8.8793  -8.8661  -8.6587  -8.6323  -8.5780  -8.4544
    -8.3970  -8.3547  -8.3246  -8.2741  -8.1052  -8.0880  -7.8195  -7.6480
    -2.1678  -2.1311  -1.8456  -1.8259  -1.8021  -1.7913  -1.7687  -1.6233
    -1.5357  -1.4864  -1.3362  -1.3100  -1.2756  -1.1713  -1.1028  -1.0299
    -0.9328  -0.9169  -0.5007  -0.3987  -0.3653  -0.3429  -0.2707  -0.2459
    -0.2380  -0.1063  -0.0586  -0.0430  -0.0162   0.0285   0.1702   0.3080
     0.3319   0.3581   0.3753   0.3878   0.3996   0.4381   0.4585   0.4826
     0.5287   0.5986   0.6471   0.7185   0.8646   0.9067   0.9495   0.9799
     1.1824   1.2847   1.3819   1.3866   1.4459   1.4793   1.5852   1.6195
     1.6283   1.6531   1.6709   1.7073   1.8275   1.8543   1.8722   1.9966
     2.0068   2.0625   2.4213   2.4351   2.4434   2.5399   2.6961   2.7125
     2.7377   2.7742   2.7956   3.1788   3.2340   3.2896   3.3626   3.5094
     3.7215   3.8217   4.0076   4.4199   4.8954   5.1174   5.1898   5.2493
     5.2589   5.3326   5.3622   5.3858   5.4928   5.5803   5.5914   5.6323
     5.7088   5.8175   5.8412   5.8778   5.8961   5.9246   5.9463   5.9771
     6.0097   6.0285

          k = 0.3333-0.2945 0.0388 ( 33021 PWs)   bands (ev):

   -12.1057 -11.9577 -10.0818 -10.0547  -9.4094  -9.3808  -9.1605  -9.1381
    -8.8915  -8.8721  -8.8422  -8.8154  -8.6352  -8.6104  -8.5582  -8.5417
    -8.4419  -8.4165  -8.3532  -8.2739  -8.1047  -8.0883  -7.8195  -7.6481
    -2.1637  -2.1303  -1.7862  -1.6568  -1.6353  -1.6288  -1.6207  -1.6056
    -1.5401  -1.5220  -1.5073  -1.4979  -1.4817  -1.3175  -1.1784  -1.1188
    -1.1005  -1.0696  -0.4815  -0.4724  -0.3629  -0.3331  -0.2697  -0.2487
    -0.1898  -0.1834  -0.0327   0.0648   0.0991   0.1770   0.2370   0.2629
     0.3164   0.3641   0.3837   0.4097   0.4243   0.5062   0.5425   0.6345
     0.7176   0.7778   0.7964   0.8080   0.8554   0.9007   0.9491   0.9712
     1.2117   1.2465   1.3704   1.3842   1.4292   1.4463   1.4654   1.5447
     1.5933   1.6157   1.6299   1.7181   1.8501   1.9182   1.9361   1.9560
     1.9768   2.0626   2.0826   2.1262   2.4328   2.4524   2.5837   2.6058
     2.8971   2.9310   2.9962   3.0192   3.1646   3.1804   3.2901   3.3642
     3.7217   3.8228   4.0233   4.4174   4.9007   5.1208   5.2008   5.2939
     5.4671   5.5576   5.5753   5.5837   5.5935   5.5974   5.6131   5.6199
     5.6276   5.7248   5.7672   5.8070   5.8725   5.9168   5.9831   6.0217
     6.0459   6.0637

          k = 0.3333-0.2945-0.1953 ( 32980 PWs)   bands (ev):

   -12.1057 -11.9577 -10.0817 -10.0546  -9.4094  -9.3808  -9.1604  -9.1382
    -8.8915  -8.8722  -8.8423  -8.8153  -8.6352  -8.6104  -8.5581  -8.5412
    -8.4419  -8.4164  -8.3537  -8.2740  -8.1048  -8.0883  -7.8196  -7.6478
    -2.1671  -2.1311  -1.8004  -1.6483  -1.6411  -1.6277  -1.6166  -1.5841
    -1.5343  -1.5219  -1.5031  -1.4900  -1.4774  -1.3579  -1.1763  -1.1215
    -1.0926  -1.0670  -0.4825  -0.4707  -0.3598  -0.3334  -0.2696  -0.2500
    -0.1981  -0.1870  -0.0135   0.0671   0.0961   0.1437   0.2449   0.2644
     0.3139   0.3577   0.3806   0.4124   0.4214   0.5197   0.5504   0.6351
     0.7218   0.7777   0.7969   0.8085   0.8531   0.8987   0.9479   0.9702
     1.2126   1.2490   1.3730   1.3874   1.4274   1.4503   1.4675   1.5447
     1.5933   1.6072   1.6225   1.7341   1.8512   1.9137   1.9401   1.9490
     1.9730   2.0677   2.0784   2.1264   2.4378   2.4477   2.5829   2.6068
     2.8972   2.9309   2.9947   3.0199   3.1640   3.1809   3.2933   3.3625
     3.7205   3.8221   4.0214   4.4198   4.8996   5.1246   5.2017   5.2860
     5.4685   5.5617   5.5775   5.5825   5.5930   5.6004   5.6094   5.6188
     5.6220   5.7429   5.7571   5.8099   5.8582   5.9193   5.9830   6.0223
     6.0451   6.0663

     the Fermi energy is     4.5041 ev

!    total energy              =    -844.87338580 Ry
     Harris-Foulkes estimate   =    -844.87338598 Ry
     estimated scf accuracy    <       0.00000023 Ry

     The total energy is the sum of the following terms:

     one-electron contribution =    -717.46004137 Ry
     hartree contribution      =     460.24288070 Ry
     xc contribution           =    -334.20347660 Ry
     ewald contribution        =    -253.45345854 Ry
     smearing contrib. (-TS)   =       0.00071001 Ry

     convergence has been achieved in  17 iterations

     Forces acting on atoms (cartesian axes, Ry/au):

     atom    1 type  1   force =     0.00006263    0.00288456    0.00070826
     atom    2 type  1   force =     0.00104534    0.00119251   -0.00304511
     atom    3 type  1   force =     0.00194003    0.00133641    0.00408479
     atom    4 type  1   force =     0.00080044    0.00268556    0.00024076
     atom    5 type  1   force =    -0.00018824    0.00005774   -0.00455123
     atom    6 type  1   force =     0.00131426   -0.00060462   -0.00507631
     atom    7 type  1   force =     0.00319903    0.00360322   -0.00517878
     atom    8 type  1   force =    -0.00180602    0.00318692   -0.00369695
     atom    9 type  1   force =    -0.00378622    0.06068026    0.01393844
     atom   10 type  1   force =     0.00870316    0.06385866    0.02148527
     atom   11 type  1   force =    -0.01775252   -0.05777483   -0.02142895
     atom   12 type  1   force =     0.01583363   -0.05683043   -0.01343714
     atom   13 type  2   force =    -0.00021882    0.00107008    0.00978434
     atom   14 type  2   force =    -0.00210835    0.00073156   -0.00333520
     atom   15 type  2   force =     0.00063484    0.00085786   -0.00454444
     atom   16 type  2   force =    -0.00028696    0.00188446   -0.00031134
     atom   17 type  2   force =     0.00516998    0.00850666    0.01131124
     atom   18 type  2   force =     0.00222758    0.05606906    0.08105882
     atom   19 type  2   force =    -0.00039315   -0.00215418    0.00113523
     atom   20 type  2   force =    -0.00062995   -0.00193687    0.00153975
     atom   21 type  2   force =     0.00044322   -0.00069702    0.00256962
     atom   22 type  2   force =     0.00087472   -0.00064643    0.00125482
     atom   23 type  2   force =     0.00098847    0.04119819   -0.00430111
     atom   24 type  2   force =    -0.00141482    0.00729204   -0.04317334
     atom   25 type  2   force =    -0.00184366    0.00171657   -0.00127961
     atom   26 type  2   force =    -0.00067227    0.00202233    0.00050234
     atom   27 type  2   force =    -0.00008332   -0.00541671    0.00011299
     atom   28 type  2   force =    -0.00000120   -0.00525350    0.00089039
     atom   29 type  2   force =    -0.00136541   -0.00384901    0.00242525
     atom   30 type  2   force =    -0.00000031   -0.00368246    0.00249475
     atom   31 type  2   force =    -0.00307492   -0.04903583    0.01298211
     atom   32 type  2   force =    -0.00147852   -0.00554092    0.04791786
     atom   33 type  2   force =    -0.00075940    0.00049823   -0.00123918
     atom   34 type  2   force =    -0.00065533    0.00053959   -0.00244074
     atom   35 type  2   force =    -0.00117690   -0.01575920   -0.01205708
     atom   36 type  2   force =    -0.00354103   -0.05269049   -0.08734053

     Total force =     0.214581     Total SCF correction =     0.001118
 
     init_run     :      5.88s CPU      6.07s WALL (       1 calls)
     electrons    :    184.17s CPU    188.23s WALL (       1 calls)
     forces       :      3.44s CPU      3.54s WALL (       1 calls)

     Called by init_run:
     wfcinit      :      3.90s CPU      4.00s WALL (       1 calls)
     potinit      :      0.51s CPU      0.52s WALL (       1 calls)
     hinit0       :      0.65s CPU      0.66s WALL (       1 calls)

     Called by electrons:
     c_bands      :    150.85s CPU    152.78s WALL (      17 calls)
     sum_band     :     25.23s CPU     26.59s WALL (      17 calls)
     v_of_rho     :      1.52s CPU      1.58s WALL (      18 calls)
     newd         :      4.89s CPU      5.47s WALL (      18 calls)
     mix_rho      :      1.84s CPU      1.95s WALL (      17 calls)

     Called by c_bands:
     init_us_2    :      4.27s CPU      4.32s WALL (     288 calls)
     cegterg      :    140.23s CPU    142.07s WALL (     136 calls)

     Called by sum_band:
     sum_band:bec :      0.21s CPU      0.21s WALL (     136 calls)
     addusdens    :      7.64s CPU      8.63s WALL (      17 calls)

     Called by *egterg:
     h_psi        :     70.46s CPU     71.68s WALL (     670 calls)
     s_psi        :     14.92s CPU     14.98s WALL (     670 calls)
     g_psi        :      0.40s CPU      0.41s WALL (     526 calls)
     cdiaghg      :     29.89s CPU     30.32s WALL (     662 calls)

     Called by h_psi:
     h_psi:pot    :     69.52s CPU     70.72s WALL (     670 calls)
     h_psi:calbec :     16.23s CPU     16.69s WALL (     670 calls)
     vloc_psi     :     38.69s CPU     39.38s WALL (     670 calls)
     add_vuspsi   :     14.59s CPU     14.65s WALL (     670 calls)

     General routines
     calbec       :     23.52s CPU     24.19s WALL (     838 calls)
     fft          :      1.88s CPU      1.99s WALL (     243 calls)
     ffts         :      0.76s CPU      0.85s WALL (     735 calls)
     fftw         :     42.95s CPU     43.71s WALL (  106100 calls)
     interpolate  :      0.13s CPU      0.14s WALL (      18 calls)
 
     Parallel routines
     fft_scatt_xy :      4.88s CPU      4.97s WALL (  107078 calls)
     fft_scatt_yz :     20.64s CPU     21.15s WALL (  107078 calls)
 
     PWSCF        :   3m14.29s CPU   3m18.71s WALL

 
   This run was terminated on:  18:15:16  19Nov2021            

=------------------------------------------------------------------------------=
   JOB DONE.
=------------------------------------------------------------------------------=
