
     Program PWSCF v.6.4 starts on 24Dec2021 at 22:15:46 

     This program is part of the open-source Quantum ESPRESSO suite
     for quantum simulation of materials; please cite
         "P. Giannozzi et al., J. Phys.:Condens. Matter 21 395502 (2009);
         "P. Giannozzi et al., J. Phys.:Condens. Matter 29 465901 (2017);
          URL http://www.quantum-espresso.org", 
     in publications or presentations arising from this work. More details at
     http://www.quantum-espresso.org/quote

     Parallel version (MPI), running on    40 processors

     MPI processes distributed on     1 nodes
     R & G space division:  proc/nbgrp/npool/nimage =      40
     Waiting for input...
     Reading input from standard input
Warning: card    &IONS ignored
Warning: card      ION_DYNAMICS = 'BFGS' ignored
Warning: card   / ignored
Warning: card    &CELL ignored
Warning: card      CELL_DYNAMICS = 'BFGS', ignored
Warning: card    / ignored

     Current dimensions of program PWSCF are:
     Max number of different atomic species (ntypx) = 10
     Max number of k-points (npk) =  40000
     Max angular momentum in pseudopotentials (lmaxx) =  3

     Subspace diagonalization in iterative solution of the eigenvalue problem:
     one sub-group per band group will be used
     scalapack distributed-memory algorithm (size of sub-group:  4*  4 procs)

 
     Parallelization info
     --------------------
     sticks:   dense  smooth     PW     G-vecs:    dense   smooth      PW
     Min         244     122     33                27739     9808    1366
     Max         245     123     34                27746     9814    1372
     Sum        9785    4907   1321              1109687   392427   54771
 


     bravais-lattice index     =            0
     lattice parameter (alat)  =      18.4838  a.u.
     unit-cell volume          =    9620.9608 (a.u.)^3
     number of atoms/cell      =           48
     number of atomic types    =            2
     number of electrons       =       288.00
     number of Kohn-Sham states=          173
     kinetic-energy cutoff     =      45.0000  Ry
     charge density cutoff     =     360.0000  Ry
     convergence threshold     =      1.0E-06
     mixing beta               =       0.7000
     number of iterations used =            8  local-TF  mixing
     Exchange-correlation      = SLA PW GGX GGC ( 1  4  2  2 0 0)

     celldm(1)=  18.483799  celldm(2)=   0.000000  celldm(3)=   0.000000
     celldm(4)=   0.000000  celldm(5)=   0.000000  celldm(6)=   0.000000

     crystal axes: (cart. coord. in units of alat)
               a(1) = (   1.000000   0.000000   0.000000 )  
               a(2) = (   0.027004   1.000785   0.000000 )  
               a(3) = (   0.249865   0.432499   1.522313 )  

     reciprocal axes: (cart. coord. in units 2 pi/alat)
               b(1) = (  1.000000 -0.026983 -0.156469 )  
               b(2) = (  0.000000  0.999215 -0.283884 )  
               b(3) = (  0.000000  0.000000  0.656895 )  


     PseudoPot. # 1 for Mo read from file:
     ~/pseudo/Mo.pw91-n-van.UPF
     MD5 check sum: Not computed, couldn't open file
     Pseudo is Ultrasoft + core correction, Zval =  6.0
     Generated by new atomic code, or converted to UPF format
     Using radial grid of  965 points,  3 beta functions with: 
                l(1) =   1
                l(2) =   2
                l(3) =   2
     Q(r) pseudized with  8 coefficients,  rinner =    1.000   1.000   1.000
                                                       1.200   1.200

     PseudoPot. # 2 for S  read from file:
     ~/pseudo/S.pw91-van_ak.UPF
     MD5 check sum: Not computed, couldn't open file
     Pseudo is Ultrasoft, Zval =  6.0
     Generated by new atomic code, or converted to UPF format
     Using radial grid of  811 points,  6 beta functions with: 
                l(1) =   0
                l(2) =   0
                l(3) =   1
                l(4) =   1
                l(5) =   2
                l(6) =   2
     Q(r) pseudized with  8 coefficients,  rinner =    1.100   1.100   1.100
                                                       1.100   1.100

     atomic species   valence    mass     pseudopotential
        Mo             6.00    95.50000     Mo( 1.00)
        S              6.00    32.06500     S ( 1.00)

     No symmetry found



   Cartesian axes

     site n.     atom                  positions (alat units)
         1           Mo  tau(   1) = (   0.6037634   0.7853617   1.3875302  )
         2           Mo  tau(   2) = (   0.3860445   0.7830972   1.1957919  )
         3           Mo  tau(   3) = (   0.3834313   0.5681500   1.3885845  )
         4           Mo  tau(   4) = (   0.6032229   0.5671011   1.1987006  )
         5           Mo  tau(   5) = (   0.3890743   0.8634936   0.3240529  )
         6           Mo  tau(   6) = (   0.1212114   0.8877625   0.1135697  )
         7           Mo  tau(   7) = (   0.1728692   0.6628226   0.3433228  )
         8           Mo  tau(   8) = (   0.4139812   0.6126106   0.1292498  )
         9           Mo  tau(   9) = (   1.1610803   1.3088153   1.4391287  )
        10           Mo  tau(  10) = (   0.9090693   1.2905544   1.2220230  )
        11           Mo  tau(  11) = (   0.8710333   1.0403651   1.4443947  )
        12           Mo  tau(  12) = (   1.1160347   1.0612164   1.2221698  )
        13           Mo  tau(  13) = (   0.9946342   0.4791047   0.2567985  )
        14           Mo  tau(  14) = (   0.6061435   0.3938333   0.1123703  )
        15           Mo  tau(  15) = (   0.6389749   0.1313215   0.3164141  )
        16           Mo  tau(  16) = (   0.8885248   0.0914713   0.1080395  )
        17           S   tau(  17) = (   0.3646940   0.8097184   1.4288293  )
        18           S   tau(  18) = (   1.1267552   1.0582360   1.4513511  )
        19           S   tau(  19) = (   0.6216350   0.8018308   1.1408384  )
        20           S   tau(  20) = (   0.6468264   0.3271910   1.1274427  )
        21           S   tau(  21) = (   0.4016608   1.3116151   1.3906422  )
        22           S   tau(  22) = (   0.3434984   1.0202457   1.1179474  )
        23           S   tau(  23) = (   0.6272594   1.0395738   1.4042540  )
        24           S   tau(  24) = (   0.8820404   1.0573720   1.1812898  )
        25           S   tau(  25) = (   0.1562193   0.8999742   0.3673878  )
        26           S   tau(  26) = (   0.8726004   0.1282545   0.3596729  )
        27           S   tau(  27) = (   0.3769284   0.8571593   0.0940140  )
        28           S   tau(  28) = (   0.3624771   0.3719708   0.1234885  )
        29           S   tau(  29) = (   0.1634419   0.4010268   0.4097548  )
        30           S   tau(  30) = (   0.1311824   0.1297321   0.1221991  )
        31           S   tau(  31) = (   0.4203511   1.1092207   0.3843224  )
        32           S   tau(  32) = (   0.6306043   0.1282757   0.0896464  )
        33           S   tau(  33) = (   0.9051835   1.2919788   1.4509899  )
        34           S   tau(  34) = (   0.6243088   0.5472436   1.4327592  )
        35           S   tau(  35) = (   1.1422201   1.2943721   1.1806260  )
        36           S   tau(  36) = (   1.1344333   0.8168404   1.1451182  )
        37           S   tau(  37) = (   0.8656149   0.8002532   1.3881354  )
        38           S   tau(  38) = (   0.8555892   0.5340424   1.1498952  )
        39           S   tau(  39) = (   1.1270111   0.5506301   1.3853593  )
        40           S   tau(  40) = (   0.3689977   0.5485194   1.1397966  )
        41           S   tau(  41) = (   0.6270213   0.3610507   0.3639342  )
        42           S   tau(  42) = (   0.4069110   0.6304966   0.3839356  )
        43           S   tau(  43) = (   0.8548116   0.3432910   0.1102597  )
        44           S   tau(  44) = (   0.8837730   0.8547616   0.1627581  )
        45           S   tau(  45) = (   0.6226594   0.9019545   0.4121800  )
        46           S   tau(  46) = (   0.6552777   0.6294142   0.1644309  )
        47           S   tau(  47) = (   0.9407036   0.6326008   0.4368342  )
        48           S   tau(  48) = (   0.1418894   0.6272685   0.1095820  )

     number of k points=     4  Marzari-Vanderbilt smearing, width (Ry)=  0.0200
                       cart. coord. in units 2pi/alat
        k(    1) = (   0.0000000   0.0000000   0.0000000), wk =   0.5000000
        k(    2) = (   0.0000000  -0.4996077   0.1419419), wk =   0.5000000
        k(    3) = (  -0.5000000   0.0134915   0.0782346), wk =   0.5000000
        k(    4) = (  -0.5000000  -0.4861162   0.2201766), wk =   0.5000000

     Dense  grid:  1109687 G-vectors     FFT dimensions: ( 120, 120, 180)

     Smooth grid:   392427 G-vectors     FFT dimensions: (  80,  80, 128)

     Estimated max dynamical RAM per process >     196.25 MB

     Estimated total dynamical RAM >       7.67 GB

     Initial potential from superposition of free atoms

     starting charge  287.97477, renormalised to  288.00000
     Starting wfcs are  272 randomized atomic wfcs

     total cpu time spent up to now is        8.1 secs

     Self-consistent Calculation

     iteration #  1     ecut=    45.00 Ry     beta= 0.70
     Davidson diagonalization with overlap
     ethr =  1.00E-02,  avg # of iterations =  2.2

     total cpu time spent up to now is       19.6 secs

     total energy              =   -1123.65653729 Ry
     Harris-Foulkes estimate   =   -1127.95481582 Ry
     estimated scf accuracy    <      11.86429488 Ry

     iteration #  2     ecut=    45.00 Ry     beta= 0.70
     Davidson diagonalization with overlap
     ethr =  4.12E-03,  avg # of iterations =  2.0

     total cpu time spent up to now is       29.8 secs

     total energy              =   -1125.18652877 Ry
     Harris-Foulkes estimate   =   -1126.39395075 Ry
     estimated scf accuracy    <       7.01204426 Ry

     iteration #  3     ecut=    45.00 Ry     beta= 0.70
     Davidson diagonalization with overlap
     ethr =  2.43E-03,  avg # of iterations =  1.5

     total cpu time spent up to now is       38.3 secs

     total energy              =   -1125.83502544 Ry
     Harris-Foulkes estimate   =   -1126.03150477 Ry
     estimated scf accuracy    <       1.86646525 Ry

     iteration #  4     ecut=    45.00 Ry     beta= 0.70
     Davidson diagonalization with overlap
     ethr =  6.48E-04,  avg # of iterations =  1.8

     total cpu time spent up to now is       46.7 secs

     total energy              =   -1125.85444237 Ry
     Harris-Foulkes estimate   =   -1125.91772725 Ry
     estimated scf accuracy    <       0.38336377 Ry

     iteration #  5     ecut=    45.00 Ry     beta= 0.70
     Davidson diagonalization with overlap
     ethr =  1.33E-04,  avg # of iterations =  2.2

     total cpu time spent up to now is       55.7 secs

     total energy              =   -1125.88504173 Ry
     Harris-Foulkes estimate   =   -1125.90270893 Ry
     estimated scf accuracy    <       0.13743129 Ry

     iteration #  6     ecut=    45.00 Ry     beta= 0.70
     Davidson diagonalization with overlap
     ethr =  4.77E-05,  avg # of iterations = 11.5

     total cpu time spent up to now is       69.1 secs

     total energy              =   -1125.89735630 Ry
     Harris-Foulkes estimate   =   -1125.90170525 Ry
     estimated scf accuracy    <       0.02534964 Ry

     iteration #  7     ecut=    45.00 Ry     beta= 0.70
     Davidson diagonalization with overlap
     ethr =  8.80E-06,  avg # of iterations =  8.5

     total cpu time spent up to now is       84.2 secs

     total energy              =   -1125.90035375 Ry
     Harris-Foulkes estimate   =   -1125.90223480 Ry
     estimated scf accuracy    <       0.01236550 Ry

     iteration #  8     ecut=    45.00 Ry     beta= 0.70
     Davidson diagonalization with overlap
     ethr =  4.29E-06,  avg # of iterations =  1.2

     total cpu time spent up to now is       93.3 secs

     total energy              =   -1125.89954459 Ry
     Harris-Foulkes estimate   =   -1125.90089267 Ry
     estimated scf accuracy    <       0.00402812 Ry

     iteration #  9     ecut=    45.00 Ry     beta= 0.70
     Davidson diagonalization with overlap
     ethr =  1.40E-06,  avg # of iterations =  5.8

     total cpu time spent up to now is      104.3 secs

     total energy              =   -1125.89947309 Ry
     Harris-Foulkes estimate   =   -1125.89993423 Ry
     estimated scf accuracy    <       0.00216581 Ry

     iteration # 10     ecut=    45.00 Ry     beta= 0.70
     Davidson diagonalization with overlap
     ethr =  7.52E-07,  avg # of iterations =  3.0

     total cpu time spent up to now is      114.0 secs

     total energy              =   -1125.89967225 Ry
     Harris-Foulkes estimate   =   -1125.89987947 Ry
     estimated scf accuracy    <       0.00302973 Ry

     iteration # 11     ecut=    45.00 Ry     beta= 0.70
     Davidson diagonalization with overlap
     ethr =  7.52E-07,  avg # of iterations =  1.0

     negative rho (up, down):  2.898E-08 0.000E+00

     total cpu time spent up to now is      122.3 secs

     total energy              =   -1125.89986174 Ry
     Harris-Foulkes estimate   =   -1125.89978409 Ry
     estimated scf accuracy    <       0.00060407 Ry

     iteration # 12     ecut=    45.00 Ry     beta= 0.70
     Davidson diagonalization with overlap
     ethr =  2.10E-07,  avg # of iterations =  3.5

     negative rho (up, down):  5.629E-07 0.000E+00

     total cpu time spent up to now is      133.4 secs

     total energy              =   -1125.89997443 Ry
     Harris-Foulkes estimate   =   -1125.90000622 Ry
     estimated scf accuracy    <       0.00049700 Ry

     iteration # 13     ecut=    45.00 Ry     beta= 0.70
     Davidson diagonalization with overlap
     ethr =  1.73E-07,  avg # of iterations =  1.0

     negative rho (up, down):  1.513E-06 0.000E+00

     total cpu time spent up to now is      141.7 secs

     total energy              =   -1125.90000138 Ry
     Harris-Foulkes estimate   =   -1125.90000414 Ry
     estimated scf accuracy    <       0.00007963 Ry

     iteration # 14     ecut=    45.00 Ry     beta= 0.70
     Davidson diagonalization with overlap
     ethr =  2.76E-08,  avg # of iterations =  3.5

     negative rho (up, down):  7.888E-06 0.000E+00

     total cpu time spent up to now is      152.9 secs

     total energy              =   -1125.90002342 Ry
     Harris-Foulkes estimate   =   -1125.90001703 Ry
     estimated scf accuracy    <       0.00004398 Ry

     iteration # 15     ecut=    45.00 Ry     beta= 0.70
     Davidson diagonalization with overlap
     ethr =  1.53E-08,  avg # of iterations =  2.0

     negative rho (up, down):  9.663E-06 0.000E+00

     total cpu time spent up to now is      162.1 secs

     total energy              =   -1125.90002519 Ry
     Harris-Foulkes estimate   =   -1125.90002633 Ry
     estimated scf accuracy    <       0.00001402 Ry

     iteration # 16     ecut=    45.00 Ry     beta= 0.70
     Davidson diagonalization with overlap
     ethr =  4.87E-09,  avg # of iterations =  2.2

     negative rho (up, down):  9.358E-06 0.000E+00

     total cpu time spent up to now is      171.2 secs

     total energy              =   -1125.90002623 Ry
     Harris-Foulkes estimate   =   -1125.90002631 Ry
     estimated scf accuracy    <       0.00000153 Ry

     iteration # 17     ecut=    45.00 Ry     beta= 0.70
     Davidson diagonalization with overlap
     ethr =  5.31E-10,  avg # of iterations =  4.0

     negative rho (up, down):  8.765E-06 0.000E+00

     total cpu time spent up to now is      184.5 secs

     End of self-consistent calculation

          k = 0.0000 0.0000 0.0000 ( 49069 PWs)   bands (ev):

   -11.5162 -10.8847 -10.7848 -10.5966 -10.5607 -10.4859 -10.3423 -10.2585
   -10.1544 -10.1413 -10.0611 -10.0379 -10.0029  -9.9604  -9.8696  -9.8563
    -9.7981  -9.7445  -9.6794  -9.6494  -9.6334  -9.5445  -9.4165  -9.2021
    -9.1590  -9.0612  -9.0207  -9.0107  -8.8273  -8.2443  -8.2253  -8.1778
    -3.4229  -3.2596  -3.1096  -3.0874  -2.8436  -2.5773  -2.5153  -2.4308
    -2.3471  -2.3156  -2.2901  -2.2335  -2.1499  -2.1409  -2.0921  -2.0426
    -2.0211  -1.9137  -1.8565  -1.8266  -1.7591  -1.7001  -1.6844  -1.6444
    -1.5339  -1.5241  -1.3994  -1.3543  -1.3060  -1.2625  -1.1855  -1.1836
    -1.1331  -1.0656  -1.0326  -0.9912  -0.9483  -0.9255  -0.8899  -0.8513
    -0.8209  -0.7586  -0.7310  -0.7037  -0.6645  -0.6310  -0.5987  -0.5551
    -0.5480  -0.5176  -0.4401  -0.3992  -0.3734  -0.2783  -0.2616  -0.1998
    -0.1634  -0.1345  -0.1028  -0.0792  -0.0126   0.0018   0.0373   0.0481
     0.0771   0.1151   0.1501   0.2012   0.2540   0.3178   0.3700   0.4036
     0.4362   0.5099   0.5497   0.6013   0.6705   0.7236   0.7550   0.8334
     0.9266   0.9646   1.0161   1.0444   1.1023   1.2107   1.2989   1.3422
     1.4003   1.4986   1.5021   1.5612   1.6539   1.7602   1.8051   1.8799
     1.9057   1.9283   2.0554   2.1117   2.2398   2.3235   2.3609   2.4797
     2.5297   2.5574   2.6236   2.7304   2.8419   2.9592   3.0563   3.0660
     3.1469   3.1730   3.2480   3.3319   3.3413   3.4113   3.5113   3.6957
     3.7746   3.8370   3.9151   3.9743   4.0638   4.1420   4.1939   4.2271
     4.2978   4.3561   4.3907   4.4174   4.5196   4.5902   4.7256   4.7406
     4.7750   4.8058   4.8213   4.8515   4.9540

          k = 0.0000-0.4996 0.1419 ( 49042 PWs)   bands (ev):

   -11.3868 -11.1177 -10.8379 -10.5407 -10.4809 -10.3993 -10.3509 -10.2427
   -10.2010 -10.1861 -10.1113 -10.0689 -10.0159  -9.9540  -9.8675  -9.8456
    -9.7736  -9.7618  -9.6733  -9.6357  -9.6112  -9.5288  -9.4116  -9.2277
    -9.1105  -9.0473  -9.0186  -9.0125  -8.8240  -8.2443  -8.2233  -8.1813
    -3.2033  -3.0447  -2.9851  -2.9013  -2.8135  -2.7822  -2.6631  -2.6347
    -2.5750  -2.4455  -2.3110  -2.2505  -2.2115  -2.1457  -2.1213  -2.0978
    -1.9906  -1.9021  -1.8437  -1.7205  -1.7146  -1.6738  -1.6470  -1.6193
    -1.5403  -1.5094  -1.4651  -1.4603  -1.4120  -1.3424  -1.3002  -1.2709
    -1.2163  -1.0826  -1.0466  -1.0381  -0.9760  -0.9148  -0.8890  -0.8440
    -0.8321  -0.7724  -0.7398  -0.6801  -0.6504  -0.5896  -0.5549  -0.5324
    -0.4992  -0.4556  -0.4151  -0.3685  -0.3236  -0.3028  -0.2384  -0.2160
    -0.1844  -0.1518  -0.1056  -0.0920  -0.0445   0.0134   0.0661   0.0998
     0.1464   0.1794   0.1986   0.2510   0.2560   0.3019   0.3529   0.4229
     0.4983   0.5403   0.6040   0.6404   0.6682   0.7128   0.7551   0.8120
     0.8445   0.9478   1.0230   1.0792   1.1337   1.1776   1.3050   1.3434
     1.4298   1.4932   1.5155   1.6794   1.7642   1.8162   1.8499   1.9428
     1.9856   2.0054   2.0940   2.1648   2.1919   2.3080   2.3312   2.4231
     2.4569   2.5819   2.7468   2.7894   2.8733   2.9301   3.0063   3.0477
     3.1002   3.1881   3.2437   3.3085   3.3881   3.4074   3.4831   3.5891
     3.6832   3.7363   3.9149   3.9722   4.0202   4.0761   4.1131   4.1816
     4.2120   4.2893   4.3161   4.4958   4.5858   4.6381   4.6853   4.7564
     4.7798   4.8095   4.8429   4.8776   4.9967

          k =-0.5000 0.0135 0.0782 ( 49060 PWs)   bands (ev):

   -11.3324 -11.2327 -10.6640 -10.6343 -10.4795 -10.4224 -10.3616 -10.2490
   -10.2256 -10.1740 -10.1070 -10.0500 -10.0047  -9.9356  -9.9001  -9.8330
    -9.7725  -9.7482  -9.6733  -9.6563  -9.6188  -9.5294  -9.4014  -9.2131
    -9.1120  -9.0620  -9.0440  -8.9808  -8.8251  -8.2457  -8.2231  -8.1812
    -3.1118  -3.0567  -3.0058  -2.9014  -2.8235  -2.7960  -2.6907  -2.6675
    -2.5334  -2.5060  -2.3057  -2.2620  -2.1719  -2.1444  -2.0988  -2.0709
    -2.0191  -1.8965  -1.8542  -1.8062  -1.7672  -1.6747  -1.6359  -1.6020
    -1.5894  -1.5003  -1.4539  -1.4122  -1.3750  -1.3216  -1.2716  -1.2230
    -1.1371  -1.1077  -1.0547  -0.9831  -0.9586  -0.9406  -0.8701  -0.8268
    -0.8146  -0.7794  -0.7384  -0.7078  -0.6459  -0.6260  -0.5870  -0.5557
    -0.5239  -0.5019  -0.4045  -0.3712  -0.3296  -0.3149  -0.2733  -0.2391
    -0.2000  -0.1579  -0.1089  -0.0898  -0.0708   0.0173   0.0438   0.0772
     0.1048   0.1796   0.1893   0.2867   0.2914   0.3547   0.4039   0.4255
     0.4483   0.5783   0.6069   0.6250   0.6589   0.6896   0.7452   0.8224
     0.8385   1.0137   1.0299   1.1117   1.1372   1.2628   1.2870   1.3151
     1.4266   1.4769   1.5292   1.7319   1.7526   1.7693   1.7994   1.9464
     1.9679   1.9828   2.1177   2.1926   2.2347   2.2602   2.3314   2.3432
     2.4581   2.6549   2.7855   2.8050   2.8558   2.9471   2.9656   3.0790
     3.1248   3.1598   3.1941   3.2556   3.3316   3.4198   3.5225   3.6171
     3.6736   3.7769   3.8085   3.9771   4.0120   4.0669   4.1432   4.2221
     4.2580   4.2912   4.3613   4.5009   4.5338   4.6071   4.7093   4.7181
     4.8112   4.8353   4.8667   4.9424   4.9981

          k =-0.5000-0.4861 0.2202 ( 49054 PWs)   bands (ev):

   -11.2402 -11.1106 -10.9087 -10.8852 -10.3890 -10.3205 -10.3071 -10.2432
   -10.2208 -10.1629 -10.0951 -10.0507 -10.0184  -9.9827  -9.8652  -9.8300
    -9.7602  -9.7295  -9.6968  -9.6824  -9.5833  -9.5325  -9.4323  -9.2038
    -9.1533  -9.0301  -8.9867  -8.9728  -8.8302  -8.2432  -8.2377  -8.1690
    -2.9810  -2.9679  -2.9321  -2.9027  -2.8552  -2.7567  -2.6863  -2.5521
    -2.5087  -2.4356  -2.3568  -2.3139  -2.2408  -2.1469  -2.0855  -2.0616
    -2.0104  -1.9690  -1.9421  -1.8731  -1.8063  -1.7807  -1.7287  -1.6905
    -1.5747  -1.5080  -1.4591  -1.4413  -1.3995  -1.3456  -1.2410  -1.2380
    -1.2019  -1.1585  -1.1313  -1.1079  -1.0641  -1.0091  -0.9882  -0.8849
    -0.8536  -0.8151  -0.7771  -0.6902  -0.6785  -0.6013  -0.5472  -0.4971
    -0.4620  -0.4307  -0.3900  -0.3403  -0.3038  -0.2876  -0.2408  -0.2242
    -0.1893  -0.1666  -0.1002  -0.0725  -0.0257   0.0022   0.0563   0.0865
     0.1385   0.1882   0.2284   0.2516   0.3091   0.3216   0.3476   0.3967
     0.4740   0.5136   0.5565   0.6153   0.7041   0.7483   0.9063   0.9601
     1.0419   1.0892   1.1715   1.1940   1.2304   1.2692   1.2936   1.4079
     1.4836   1.5350   1.5748   1.6490   1.7322   1.7775   1.8220   1.9356
     1.9488   1.9844   2.0298   2.1879   2.2116   2.2603   2.3297   2.4745
     2.5148   2.6130   2.6504   2.7648   2.8522   2.9958   3.0515   3.0808
     3.1473   3.1789   3.2170   3.2983   3.3258   3.4270   3.4733   3.5268
     3.6014   3.7906   3.8255   3.8425   3.9339   4.0276   4.0565   4.1442
     4.2592   4.3216   4.3501   4.4994   4.5486   4.6317   4.6738   4.7172
     4.7960   4.8382   4.8797   4.9379   4.9510

     the Fermi energy is     3.1023 ev

!    total energy              =   -1125.90002612 Ry
     Harris-Foulkes estimate   =   -1125.90002671 Ry
     estimated scf accuracy    <       0.00000073 Ry

     The total energy is the sum of the following terms:

     one-electron contribution =   -1989.40910934 Ry
     hartree contribution      =    1120.18695579 Ry
     xc contribution           =    -444.66085123 Ry
     ewald contribution        =     187.99665572 Ry
     smearing contrib. (-TS)   =      -0.01367707 Ry

     convergence has been achieved in  17 iterations

     negative rho (up, down):  8.765E-06 0.000E+00

     Forces acting on atoms (cartesian axes, Ry/au):

     atom    1 type  1   force =     0.01067895    0.00007284   -0.00227499
     atom    2 type  1   force =    -0.03482703    0.05111651   -0.01803919
     atom    3 type  1   force =    -0.02673873   -0.01158855    0.03318613
     atom    4 type  1   force =     0.05276430   -0.04054538   -0.01485076
     atom    5 type  1   force =     0.04146852    0.04526870    0.00456614
     atom    6 type  1   force =     0.00205715   -0.01352097    0.01239122
     atom    7 type  1   force =     0.01261166   -0.00619412    0.04777690
     atom    8 type  1   force =    -0.02100420    0.00630077    0.00997918
     atom    9 type  1   force =     0.01174881    0.02435622   -0.02078071
     atom   10 type  1   force =    -0.03551743    0.03757866   -0.01405686
     atom   11 type  1   force =    -0.02575935   -0.02127996   -0.02041265
     atom   12 type  1   force =     0.01953046   -0.04121509   -0.02176343
     atom   13 type  1   force =     0.02680183   -0.01902625    0.08375065
     atom   14 type  1   force =     0.00424825   -0.02490513    0.01414219
     atom   15 type  1   force =    -0.02901419   -0.02472889    0.04432129
     atom   16 type  1   force =     0.01029221    0.00097365   -0.00177783
     atom   17 type  2   force =    -0.01434228    0.01256517   -0.00263180
     atom   18 type  2   force =     0.01527303   -0.02981032    0.02095354
     atom   19 type  2   force =     0.01588736    0.01416963   -0.01322848
     atom   20 type  2   force =     0.01791944    0.00443175    0.01013712
     atom   21 type  2   force =    -0.00140028   -0.01797315   -0.00184796
     atom   22 type  2   force =    -0.01205402   -0.00424082    0.00999071
     atom   23 type  2   force =     0.00390054    0.01135882   -0.00542411
     atom   24 type  2   force =    -0.04322419   -0.04109534   -0.02136678
     atom   25 type  2   force =    -0.02323946    0.03283624    0.03364072
     atom   26 type  2   force =    -0.01210954   -0.01017725    0.01088789
     atom   27 type  2   force =     0.01719376    0.01789693   -0.02757589
     atom   28 type  2   force =     0.01189160    0.00154027    0.00618478
     atom   29 type  2   force =    -0.03769435    0.02653210   -0.05939573
     atom   30 type  2   force =    -0.00338629    0.00303329    0.01207680
     atom   31 type  2   force =     0.00755205   -0.01017420   -0.00706806
     atom   32 type  2   force =    -0.00662309    0.00130325   -0.03324508
     atom   33 type  2   force =    -0.02269777    0.02371863    0.02651838
     atom   34 type  2   force =     0.01279971   -0.01675412   -0.00518025
     atom   35 type  2   force =     0.05035670    0.04350634   -0.03476557
     atom   36 type  2   force =     0.00817145    0.03011598    0.00884497
     atom   37 type  2   force =     0.00554009    0.00316220    0.00804506
     atom   38 type  2   force =    -0.00768891   -0.02811834    0.00641272
     atom   39 type  2   force =    -0.01346816    0.00049063   -0.00107634
     atom   40 type  2   force =    -0.01189715   -0.01436516   -0.00990833
     atom   41 type  2   force =    -0.01969272    0.00069729   -0.00111367
     atom   42 type  2   force =     0.01401730   -0.02431908    0.01698191
     atom   43 type  2   force =     0.02840828    0.03695717   -0.00350183
     atom   44 type  2   force =     0.01369770    0.01510486   -0.01557574
     atom   45 type  2   force =    -0.00707515    0.00270087   -0.01146436
     atom   46 type  2   force =    -0.00964159   -0.01208849   -0.00478805
     atom   47 type  2   force =     0.00214377   -0.01475105   -0.04823156
     atom   48 type  2   force =     0.00214094   -0.02091708    0.00055775

     Total force =     0.276766     Total SCF correction =     0.001888
 
     init_run     :      6.91s CPU      7.18s WALL (       1 calls)
     electrons    :    170.83s CPU    176.35s WALL (       1 calls)
     forces       :      3.84s CPU      3.96s WALL (       1 calls)

     Called by init_run:
     wfcinit      :      3.91s CPU      4.03s WALL (       1 calls)
     potinit      :      0.79s CPU      0.80s WALL (       1 calls)
     hinit0       :      1.14s CPU      1.19s WALL (       1 calls)

     Called by electrons:
     c_bands      :    132.00s CPU    134.32s WALL (      17 calls)
     sum_band     :     26.24s CPU     28.21s WALL (      17 calls)
     v_of_rho     :      2.14s CPU      2.29s WALL (      18 calls)
     newd         :      6.69s CPU      7.57s WALL (      18 calls)
     mix_rho      :      3.90s CPU      4.14s WALL (      17 calls)

     Called by c_bands:
     init_us_2    :      2.11s CPU      2.12s WALL (     144 calls)
     cegterg      :    122.71s CPU    124.99s WALL (      68 calls)

     Called by sum_band:
     sum_band:bec :      0.19s CPU      0.19s WALL (      68 calls)
     addusdens    :      9.43s CPU     11.09s WALL (      17 calls)

     Called by *egterg:
     h_psi        :     66.54s CPU     67.98s WALL (     300 calls)
     s_psi        :     14.42s CPU     14.45s WALL (     300 calls)
     g_psi        :      0.26s CPU      0.26s WALL (     228 calls)
     cdiaghg      :     20.42s CPU     20.76s WALL (     296 calls)

     Called by h_psi:
     h_psi:pot    :     66.08s CPU     67.26s WALL (     300 calls)
     h_psi:calbec :     15.23s CPU     15.65s WALL (     300 calls)
     vloc_psi     :     36.07s CPU     36.68s WALL (     300 calls)
     add_vuspsi   :     14.77s CPU     14.93s WALL (     300 calls)

     General routines
     calbec       :     22.67s CPU     23.26s WALL (     384 calls)
     fft          :      2.18s CPU      2.35s WALL (     243 calls)
     ffts         :      1.79s CPU      1.97s WALL (    1275 calls)
     fftw         :     40.56s CPU     41.22s WALL (   67738 calls)
     interpolate  :      0.23s CPU      0.24s WALL (      18 calls)
 
     Parallel routines
     fft_scatt_xy :      4.53s CPU      4.60s WALL (   69256 calls)
     fft_scatt_yz :     18.81s CPU     19.36s WALL (   69256 calls)
 
     PWSCF        :   3m 2.43s CPU   3m 8.47s WALL

 
   This run was terminated on:  22:18:54  24Dec2021            

=------------------------------------------------------------------------------=
   JOB DONE.
=------------------------------------------------------------------------------=

     Program PWSCF v.6.4 starts on 24Dec2021 at 22:22:18 

     This program is part of the open-source Quantum ESPRESSO suite
     for quantum simulation of materials; please cite
         "P. Giannozzi et al., J. Phys.:Condens. Matter 21 395502 (2009);
         "P. Giannozzi et al., J. Phys.:Condens. Matter 29 465901 (2017);
          URL http://www.quantum-espresso.org", 
     in publications or presentations arising from this work. More details at
     http://www.quantum-espresso.org/quote

     Parallel version (MPI), running on    40 processors

     MPI processes distributed on     1 nodes
     R & G space division:  proc/nbgrp/npool/nimage =      40
     Waiting for input...
     Reading input from standard input
Warning: card    &IONS ignored
Warning: card      ION_DYNAMICS = 'BFGS' ignored
Warning: card   / ignored
Warning: card    &CELL ignored
Warning: card      CELL_DYNAMICS = 'BFGS', ignored
Warning: card    / ignored

     Current dimensions of program PWSCF are:
     Max number of different atomic species (ntypx) = 10
     Max number of k-points (npk) =  40000
     Max angular momentum in pseudopotentials (lmaxx) =  3

     Subspace diagonalization in iterative solution of the eigenvalue problem:
     one sub-group per band group will be used
     scalapack distributed-memory algorithm (size of sub-group:  4*  4 procs)

 
     Parallelization info
     --------------------
     sticks:   dense  smooth     PW     G-vecs:    dense   smooth      PW
     Min         244     122     33                27739     9808    1366
     Max         245     123     34                27746     9814    1372
     Sum        9785    4907   1321              1109687   392427   54771
 


     bravais-lattice index     =            0
     lattice parameter (alat)  =      18.4838  a.u.
     unit-cell volume          =    9620.9608 (a.u.)^3
     number of atoms/cell      =           48
     number of atomic types    =            2
     number of electrons       =       288.00
     number of Kohn-Sham states=          173
     kinetic-energy cutoff     =      45.0000  Ry
     charge density cutoff     =     360.0000  Ry
     convergence threshold     =      1.0E-06
     mixing beta               =       0.7000
     number of iterations used =            8  local-TF  mixing
     Exchange-correlation      = SLA PW GGX GGC ( 1  4  2  2 0 0)

     celldm(1)=  18.483799  celldm(2)=   0.000000  celldm(3)=   0.000000
     celldm(4)=   0.000000  celldm(5)=   0.000000  celldm(6)=   0.000000

     crystal axes: (cart. coord. in units of alat)
               a(1) = (   1.000000   0.000000   0.000000 )  
               a(2) = (   0.027004   1.000785   0.000000 )  
               a(3) = (   0.249865   0.432499   1.522313 )  

     reciprocal axes: (cart. coord. in units 2 pi/alat)
               b(1) = (  1.000000 -0.026983 -0.156469 )  
               b(2) = (  0.000000  0.999215 -0.283884 )  
               b(3) = (  0.000000  0.000000  0.656895 )  


     PseudoPot. # 1 for Mo read from file:
     ~/pseudo/Mo.pw91-n-van.UPF
     MD5 check sum: Not computed, couldn't open file
     Pseudo is Ultrasoft + core correction, Zval =  6.0
     Generated by new atomic code, or converted to UPF format
     Using radial grid of  965 points,  3 beta functions with: 
                l(1) =   1
                l(2) =   2
                l(3) =   2
     Q(r) pseudized with  8 coefficients,  rinner =    1.000   1.000   1.000
                                                       1.200   1.200

     PseudoPot. # 2 for S  read from file:
     ~/pseudo/S.pw91-van_ak.UPF
     MD5 check sum: Not computed, couldn't open file
     Pseudo is Ultrasoft, Zval =  6.0
     Generated by new atomic code, or converted to UPF format
     Using radial grid of  811 points,  6 beta functions with: 
                l(1) =   0
                l(2) =   0
                l(3) =   1
                l(4) =   1
                l(5) =   2
                l(6) =   2
     Q(r) pseudized with  8 coefficients,  rinner =    1.100   1.100   1.100
                                                       1.100   1.100

     atomic species   valence    mass     pseudopotential
        Mo             6.00    95.50000     Mo( 1.00)
        S              6.00    32.06500     S ( 1.00)

     No symmetry found



   Cartesian axes

     site n.     atom                  positions (alat units)
         1           Mo  tau(   1) = (   0.6037634   0.7853617   1.3875302  )
         2           Mo  tau(   2) = (   0.3860445   0.7830972   1.1957919  )
         3           Mo  tau(   3) = (   0.3834313   0.5681500   1.3885845  )
         4           Mo  tau(   4) = (   0.6032229   0.5671011   1.1987006  )
         5           Mo  tau(   5) = (   0.3890743   0.8634936   0.3240529  )
         6           Mo  tau(   6) = (   0.1212114   0.8877625   0.1135697  )
         7           Mo  tau(   7) = (   0.1728692   0.6628226   0.3433228  )
         8           Mo  tau(   8) = (   0.4139812   0.6126106   0.1292498  )
         9           Mo  tau(   9) = (   1.1610803   1.3088153   1.4391287  )
        10           Mo  tau(  10) = (   0.9090693   1.2905544   1.2220230  )
        11           Mo  tau(  11) = (   0.8710333   1.0403651   1.4443947  )
        12           Mo  tau(  12) = (   1.1160347   1.0612164   1.2221698  )
        13           Mo  tau(  13) = (   0.9946342   0.4791047   0.2567985  )
        14           Mo  tau(  14) = (   0.6061435   0.3938333   0.1123703  )
        15           Mo  tau(  15) = (   0.6389749   0.1313215   0.3164141  )
        16           Mo  tau(  16) = (   0.8885248   0.0914713   0.1080395  )
        17           S   tau(  17) = (   0.3646940   0.8097184   1.4288293  )
        18           S   tau(  18) = (   1.1267552   1.0582360   1.4513511  )
        19           S   tau(  19) = (   0.6216350   0.8018308   1.1408384  )
        20           S   tau(  20) = (   0.6468264   0.3271910   1.1274427  )
        21           S   tau(  21) = (   0.4016608   1.3116151   1.3906422  )
        22           S   tau(  22) = (   0.3434984   1.0202457   1.1179474  )
        23           S   tau(  23) = (   0.6272594   1.0395738   1.4042540  )
        24           S   tau(  24) = (   0.8820404   1.0573720   1.1812898  )
        25           S   tau(  25) = (   0.1562193   0.8999742   0.3673878  )
        26           S   tau(  26) = (   0.8726004   0.1282545   0.3596729  )
        27           S   tau(  27) = (   0.3769284   0.8571593   0.0940140  )
        28           S   tau(  28) = (   0.3624771   0.3719708   0.1234885  )
        29           S   tau(  29) = (   0.1634419   0.4010268   0.4097548  )
        30           S   tau(  30) = (   0.1311824   0.1297321   0.1221991  )
        31           S   tau(  31) = (   0.4203511   1.1092207   0.3843224  )
        32           S   tau(  32) = (   0.6306043   0.1282757   0.0896464  )
        33           S   tau(  33) = (   0.9051835   1.2919788   1.4509899  )
        34           S   tau(  34) = (   0.6243088   0.5472436   1.4327592  )
        35           S   tau(  35) = (   1.1422201   1.2943721   1.1806260  )
        36           S   tau(  36) = (   1.1344333   0.8168404   1.1451182  )
        37           S   tau(  37) = (   0.8656149   0.8002532   1.3881354  )
        38           S   tau(  38) = (   0.8555892   0.5340424   1.1498952  )
        39           S   tau(  39) = (   1.1270111   0.5506301   1.3853593  )
        40           S   tau(  40) = (   0.3689977   0.5485194   1.1397966  )
        41           S   tau(  41) = (   0.6270213   0.3610507   0.3639342  )
        42           S   tau(  42) = (   0.4069110   0.6304966   0.3839356  )
        43           S   tau(  43) = (   0.8548116   0.3432910   0.1102597  )
        44           S   tau(  44) = (   0.8837730   0.8547616   0.1627581  )
        45           S   tau(  45) = (   0.6226594   0.9019545   0.4121800  )
        46           S   tau(  46) = (   0.6552777   0.6294142   0.1644309  )
        47           S   tau(  47) = (   0.9407036   0.6326008   0.4368342  )
        48           S   tau(  48) = (   0.1418894   0.6272685   0.1095820  )

     number of k points=     4  Marzari-Vanderbilt smearing, width (Ry)=  0.0200
                       cart. coord. in units 2pi/alat
        k(    1) = (   0.0000000   0.0000000   0.0000000), wk =   0.5000000
        k(    2) = (   0.0000000  -0.4996077   0.1419419), wk =   0.5000000
        k(    3) = (  -0.5000000   0.0134915   0.0782346), wk =   0.5000000
        k(    4) = (  -0.5000000  -0.4861162   0.2201766), wk =   0.5000000

     Dense  grid:  1109687 G-vectors     FFT dimensions: ( 120, 120, 180)

     Smooth grid:   392427 G-vectors     FFT dimensions: (  80,  80, 128)

     Estimated max dynamical RAM per process >     196.25 MB

     Estimated total dynamical RAM >       7.67 GB

     Initial potential from superposition of free atoms

     starting charge  287.97477, renormalised to  288.00000
     Starting wfcs are  272 randomized atomic wfcs

     total cpu time spent up to now is        7.9 secs

     Self-consistent Calculation

     iteration #  1     ecut=    45.00 Ry     beta= 0.70
     Davidson diagonalization with overlap
     ethr =  1.00E-02,  avg # of iterations =  2.2

     total cpu time spent up to now is       19.5 secs

     total energy              =   -1123.65653729 Ry
     Harris-Foulkes estimate   =   -1127.95481582 Ry
     estimated scf accuracy    <      11.86429488 Ry

     iteration #  2     ecut=    45.00 Ry     beta= 0.70
     Davidson diagonalization with overlap
     ethr =  4.12E-03,  avg # of iterations =  2.0

     total cpu time spent up to now is       29.9 secs

     total energy              =   -1125.18652877 Ry
     Harris-Foulkes estimate   =   -1126.39395075 Ry
     estimated scf accuracy    <       7.01204426 Ry

     iteration #  3     ecut=    45.00 Ry     beta= 0.70
     Davidson diagonalization with overlap
     ethr =  2.43E-03,  avg # of iterations =  1.5

     total cpu time spent up to now is       38.4 secs

     total energy              =   -1125.83502544 Ry
     Harris-Foulkes estimate   =   -1126.03150477 Ry
     estimated scf accuracy    <       1.86646525 Ry

     iteration #  4     ecut=    45.00 Ry     beta= 0.70
     Davidson diagonalization with overlap
     ethr =  6.48E-04,  avg # of iterations =  1.8

     total cpu time spent up to now is       47.0 secs

     total energy              =   -1125.85444237 Ry
     Harris-Foulkes estimate   =   -1125.91772725 Ry
     estimated scf accuracy    <       0.38336377 Ry

     iteration #  5     ecut=    45.00 Ry     beta= 0.70
     Davidson diagonalization with overlap
     ethr =  1.33E-04,  avg # of iterations =  2.2

     total cpu time spent up to now is       56.1 secs

     total energy              =   -1125.88504173 Ry
     Harris-Foulkes estimate   =   -1125.90270893 Ry
     estimated scf accuracy    <       0.13743129 Ry

     iteration #  6     ecut=    45.00 Ry     beta= 0.70
     Davidson diagonalization with overlap
     ethr =  4.77E-05,  avg # of iterations = 11.5

     total cpu time spent up to now is       69.7 secs

     total energy              =   -1125.89735630 Ry
     Harris-Foulkes estimate   =   -1125.90170525 Ry
     estimated scf accuracy    <       0.02534964 Ry

     iteration #  7     ecut=    45.00 Ry     beta= 0.70
     Davidson diagonalization with overlap
     ethr =  8.80E-06,  avg # of iterations =  8.5

     total cpu time spent up to now is       85.1 secs

     total energy              =   -1125.90035375 Ry
     Harris-Foulkes estimate   =   -1125.90223480 Ry
     estimated scf accuracy    <       0.01236550 Ry

     iteration #  8     ecut=    45.00 Ry     beta= 0.70
     Davidson diagonalization with overlap
     ethr =  4.29E-06,  avg # of iterations =  1.2

     total cpu time spent up to now is       93.6 secs

     total energy              =   -1125.89954459 Ry
     Harris-Foulkes estimate   =   -1125.90089267 Ry
     estimated scf accuracy    <       0.00402812 Ry

     iteration #  9     ecut=    45.00 Ry     beta= 0.70
     Davidson diagonalization with overlap
     ethr =  1.40E-06,  avg # of iterations =  5.8

     total cpu time spent up to now is      104.1 secs

     total energy              =   -1125.89947309 Ry
     Harris-Foulkes estimate   =   -1125.89993423 Ry
     estimated scf accuracy    <       0.00216581 Ry

     iteration # 10     ecut=    45.00 Ry     beta= 0.70
     Davidson diagonalization with overlap
     ethr =  7.52E-07,  avg # of iterations =  3.0

     total cpu time spent up to now is      114.2 secs

     total energy              =   -1125.89967225 Ry
     Harris-Foulkes estimate   =   -1125.89987947 Ry
     estimated scf accuracy    <       0.00302973 Ry

     iteration # 11     ecut=    45.00 Ry     beta= 0.70
     Davidson diagonalization with overlap
     ethr =  7.52E-07,  avg # of iterations =  1.0

     negative rho (up, down):  2.898E-08 0.000E+00

     total cpu time spent up to now is      122.7 secs

     total energy              =   -1125.89986174 Ry
     Harris-Foulkes estimate   =   -1125.89978409 Ry
     estimated scf accuracy    <       0.00060407 Ry

     iteration # 12     ecut=    45.00 Ry     beta= 0.70
     Davidson diagonalization with overlap
     ethr =  2.10E-07,  avg # of iterations =  3.5

     negative rho (up, down):  5.629E-07 0.000E+00

     total cpu time spent up to now is      134.1 secs

     total energy              =   -1125.89997443 Ry
     Harris-Foulkes estimate   =   -1125.90000622 Ry
     estimated scf accuracy    <       0.00049700 Ry

     iteration # 13     ecut=    45.00 Ry     beta= 0.70
     Davidson diagonalization with overlap
     ethr =  1.73E-07,  avg # of iterations =  1.0

     negative rho (up, down):  1.513E-06 0.000E+00

     total cpu time spent up to now is      142.7 secs

     total energy              =   -1125.90000138 Ry
     Harris-Foulkes estimate   =   -1125.90000414 Ry
     estimated scf accuracy    <       0.00007963 Ry

     iteration # 14     ecut=    45.00 Ry     beta= 0.70
     Davidson diagonalization with overlap
     ethr =  2.76E-08,  avg # of iterations =  3.5

     negative rho (up, down):  7.888E-06 0.000E+00

     total cpu time spent up to now is      154.3 secs

     total energy              =   -1125.90002342 Ry
     Harris-Foulkes estimate   =   -1125.90001703 Ry
     estimated scf accuracy    <       0.00004398 Ry

     iteration # 15     ecut=    45.00 Ry     beta= 0.70
     Davidson diagonalization with overlap
     ethr =  1.53E-08,  avg # of iterations =  2.0

     negative rho (up, down):  9.663E-06 0.000E+00

     total cpu time spent up to now is      163.8 secs

     total energy              =   -1125.90002519 Ry
     Harris-Foulkes estimate   =   -1125.90002633 Ry
     estimated scf accuracy    <       0.00001402 Ry

     iteration # 16     ecut=    45.00 Ry     beta= 0.70
     Davidson diagonalization with overlap
     ethr =  4.87E-09,  avg # of iterations =  2.2

     negative rho (up, down):  9.358E-06 0.000E+00

     total cpu time spent up to now is      173.2 secs

     total energy              =   -1125.90002623 Ry
     Harris-Foulkes estimate   =   -1125.90002631 Ry
     estimated scf accuracy    <       0.00000153 Ry

     iteration # 17     ecut=    45.00 Ry     beta= 0.70
     Davidson diagonalization with overlap
     ethr =  5.31E-10,  avg # of iterations =  4.0

     negative rho (up, down):  8.765E-06 0.000E+00

     total cpu time spent up to now is      186.8 secs

     End of self-consistent calculation

          k = 0.0000 0.0000 0.0000 ( 49069 PWs)   bands (ev):

   -11.5162 -10.8847 -10.7848 -10.5966 -10.5607 -10.4859 -10.3423 -10.2585
   -10.1544 -10.1413 -10.0611 -10.0379 -10.0029  -9.9604  -9.8696  -9.8563
    -9.7981  -9.7445  -9.6794  -9.6494  -9.6334  -9.5445  -9.4165  -9.2021
    -9.1590  -9.0612  -9.0207  -9.0107  -8.8273  -8.2443  -8.2253  -8.1778
    -3.4229  -3.2596  -3.1096  -3.0874  -2.8436  -2.5773  -2.5153  -2.4308
    -2.3471  -2.3156  -2.2901  -2.2335  -2.1499  -2.1409  -2.0921  -2.0426
    -2.0211  -1.9137  -1.8565  -1.8266  -1.7591  -1.7001  -1.6844  -1.6444
    -1.5339  -1.5241  -1.3994  -1.3543  -1.3060  -1.2625  -1.1855  -1.1836
    -1.1331  -1.0656  -1.0326  -0.9912  -0.9483  -0.9255  -0.8899  -0.8513
    -0.8209  -0.7586  -0.7310  -0.7037  -0.6645  -0.6310  -0.5987  -0.5551
    -0.5480  -0.5176  -0.4401  -0.3992  -0.3734  -0.2783  -0.2616  -0.1998
    -0.1634  -0.1345  -0.1028  -0.0792  -0.0126   0.0018   0.0373   0.0481
     0.0771   0.1151   0.1501   0.2012   0.2540   0.3178   0.3700   0.4036
     0.4362   0.5099   0.5497   0.6013   0.6705   0.7236   0.7550   0.8334
     0.9266   0.9646   1.0161   1.0444   1.1023   1.2107   1.2989   1.3422
     1.4003   1.4986   1.5021   1.5612   1.6539   1.7602   1.8051   1.8799
     1.9057   1.9283   2.0554   2.1117   2.2398   2.3235   2.3609   2.4797
     2.5297   2.5574   2.6236   2.7304   2.8419   2.9592   3.0563   3.0660
     3.1469   3.1730   3.2480   3.3319   3.3413   3.4113   3.5113   3.6957
     3.7746   3.8370   3.9151   3.9743   4.0638   4.1420   4.1939   4.2271
     4.2978   4.3561   4.3907   4.4174   4.5196   4.5902   4.7256   4.7406
     4.7750   4.8058   4.8213   4.8515   4.9540

          k = 0.0000-0.4996 0.1419 ( 49042 PWs)   bands (ev):

   -11.3868 -11.1177 -10.8379 -10.5407 -10.4809 -10.3993 -10.3509 -10.2427
   -10.2010 -10.1861 -10.1113 -10.0689 -10.0159  -9.9540  -9.8675  -9.8456
    -9.7736  -9.7618  -9.6733  -9.6357  -9.6112  -9.5288  -9.4116  -9.2277
    -9.1105  -9.0473  -9.0186  -9.0125  -8.8240  -8.2443  -8.2233  -8.1813
    -3.2033  -3.0447  -2.9851  -2.9013  -2.8135  -2.7822  -2.6631  -2.6347
    -2.5750  -2.4455  -2.3110  -2.2505  -2.2115  -2.1457  -2.1213  -2.0978
    -1.9906  -1.9021  -1.8437  -1.7205  -1.7146  -1.6738  -1.6470  -1.6193
    -1.5403  -1.5094  -1.4651  -1.4603  -1.4120  -1.3424  -1.3002  -1.2709
    -1.2163  -1.0826  -1.0466  -1.0381  -0.9760  -0.9148  -0.8890  -0.8440
    -0.8321  -0.7724  -0.7398  -0.6801  -0.6504  -0.5896  -0.5549  -0.5324
    -0.4992  -0.4556  -0.4151  -0.3685  -0.3236  -0.3028  -0.2384  -0.2160
    -0.1844  -0.1518  -0.1056  -0.0920  -0.0445   0.0134   0.0661   0.0998
     0.1464   0.1794   0.1986   0.2510   0.2560   0.3019   0.3529   0.4229
     0.4983   0.5403   0.6040   0.6404   0.6682   0.7128   0.7551   0.8120
     0.8445   0.9478   1.0230   1.0792   1.1337   1.1776   1.3050   1.3434
     1.4298   1.4932   1.5155   1.6794   1.7642   1.8162   1.8499   1.9428
     1.9856   2.0054   2.0940   2.1648   2.1919   2.3080   2.3312   2.4231
     2.4569   2.5819   2.7468   2.7894   2.8733   2.9301   3.0063   3.0477
     3.1002   3.1881   3.2437   3.3085   3.3881   3.4074   3.4831   3.5891
     3.6832   3.7363   3.9149   3.9722   4.0202   4.0761   4.1131   4.1816
     4.2120   4.2893   4.3161   4.4958   4.5858   4.6381   4.6853   4.7564
     4.7798   4.8095   4.8429   4.8776   4.9967

          k =-0.5000 0.0135 0.0782 ( 49060 PWs)   bands (ev):

   -11.3324 -11.2327 -10.6640 -10.6343 -10.4795 -10.4224 -10.3616 -10.2490
   -10.2256 -10.1740 -10.1070 -10.0500 -10.0047  -9.9356  -9.9001  -9.8330
    -9.7725  -9.7482  -9.6733  -9.6563  -9.6188  -9.5294  -9.4014  -9.2131
    -9.1120  -9.0620  -9.0440  -8.9808  -8.8251  -8.2457  -8.2231  -8.1812
    -3.1118  -3.0567  -3.0058  -2.9014  -2.8235  -2.7960  -2.6907  -2.6675
    -2.5334  -2.5060  -2.3057  -2.2620  -2.1719  -2.1444  -2.0988  -2.0709
    -2.0191  -1.8965  -1.8542  -1.8062  -1.7672  -1.6747  -1.6359  -1.6020
    -1.5894  -1.5003  -1.4539  -1.4122  -1.3750  -1.3216  -1.2716  -1.2230
    -1.1371  -1.1077  -1.0547  -0.9831  -0.9586  -0.9406  -0.8701  -0.8268
    -0.8146  -0.7794  -0.7384  -0.7078  -0.6459  -0.6260  -0.5870  -0.5557
    -0.5239  -0.5019  -0.4045  -0.3712  -0.3296  -0.3149  -0.2733  -0.2391
    -0.2000  -0.1579  -0.1089  -0.0898  -0.0708   0.0173   0.0438   0.0772
     0.1048   0.1796   0.1893   0.2867   0.2914   0.3547   0.4039   0.4255
     0.4483   0.5783   0.6069   0.6250   0.6589   0.6896   0.7452   0.8224
     0.8385   1.0137   1.0299   1.1117   1.1372   1.2628   1.2870   1.3151
     1.4266   1.4769   1.5292   1.7319   1.7526   1.7693   1.7994   1.9464
     1.9679   1.9828   2.1177   2.1926   2.2347   2.2602   2.3314   2.3432
     2.4581   2.6549   2.7855   2.8050   2.8558   2.9471   2.9656   3.0790
     3.1248   3.1598   3.1941   3.2556   3.3316   3.4198   3.5225   3.6171
     3.6736   3.7769   3.8085   3.9771   4.0120   4.0669   4.1432   4.2221
     4.2580   4.2912   4.3613   4.5009   4.5338   4.6071   4.7093   4.7181
     4.8112   4.8353   4.8667   4.9424   4.9981

          k =-0.5000-0.4861 0.2202 ( 49054 PWs)   bands (ev):

   -11.2402 -11.1106 -10.9087 -10.8852 -10.3890 -10.3205 -10.3071 -10.2432
   -10.2208 -10.1629 -10.0951 -10.0507 -10.0184  -9.9827  -9.8652  -9.8300
    -9.7602  -9.7295  -9.6968  -9.6824  -9.5833  -9.5325  -9.4323  -9.2038
    -9.1533  -9.0301  -8.9867  -8.9728  -8.8302  -8.2432  -8.2377  -8.1690
    -2.9810  -2.9679  -2.9321  -2.9027  -2.8552  -2.7567  -2.6863  -2.5521
    -2.5087  -2.4356  -2.3568  -2.3139  -2.2408  -2.1469  -2.0855  -2.0616
    -2.0104  -1.9690  -1.9421  -1.8731  -1.8063  -1.7807  -1.7287  -1.6905
    -1.5747  -1.5080  -1.4591  -1.4413  -1.3995  -1.3456  -1.2410  -1.2380
    -1.2019  -1.1585  -1.1313  -1.1079  -1.0641  -1.0091  -0.9882  -0.8849
    -0.8536  -0.8151  -0.7771  -0.6902  -0.6785  -0.6013  -0.5472  -0.4971
    -0.4620  -0.4307  -0.3900  -0.3403  -0.3038  -0.2876  -0.2408  -0.2242
    -0.1893  -0.1666  -0.1002  -0.0725  -0.0257   0.0022   0.0563   0.0865
     0.1385   0.1882   0.2284   0.2516   0.3091   0.3216   0.3476   0.3967
     0.4740   0.5136   0.5565   0.6153   0.7041   0.7483   0.9063   0.9601
     1.0419   1.0892   1.1715   1.1940   1.2304   1.2692   1.2936   1.4079
     1.4836   1.5350   1.5748   1.6490   1.7322   1.7775   1.8220   1.9356
     1.9488   1.9844   2.0298   2.1879   2.2116   2.2603   2.3297   2.4745
     2.5148   2.6130   2.6504   2.7648   2.8522   2.9958   3.0515   3.0808
     3.1473   3.1789   3.2170   3.2983   3.3258   3.4270   3.4733   3.5268
     3.6014   3.7906   3.8255   3.8425   3.9339   4.0276   4.0565   4.1442
     4.2592   4.3216   4.3501   4.4994   4.5486   4.6317   4.6738   4.7172
     4.7960   4.8382   4.8797   4.9379   4.9510

     the Fermi energy is     3.1023 ev

!    total energy              =   -1125.90002612 Ry
     Harris-Foulkes estimate   =   -1125.90002671 Ry
     estimated scf accuracy    <       0.00000073 Ry

     The total energy is the sum of the following terms:

     one-electron contribution =   -1989.40910937 Ry
     hartree contribution      =    1120.18695582 Ry
     xc contribution           =    -444.66085122 Ry
     ewald contribution        =     187.99665572 Ry
     smearing contrib. (-TS)   =      -0.01367707 Ry

     convergence has been achieved in  17 iterations

     negative rho (up, down):  8.765E-06 0.000E+00

     Forces acting on atoms (cartesian axes, Ry/au):

     atom    1 type  1   force =     0.01067895    0.00007284   -0.00227499
     atom    2 type  1   force =    -0.03482703    0.05111651   -0.01803919
     atom    3 type  1   force =    -0.02673873   -0.01158855    0.03318613
     atom    4 type  1   force =     0.05276430   -0.04054538   -0.01485076
     atom    5 type  1   force =     0.04146852    0.04526870    0.00456614
     atom    6 type  1   force =     0.00205715   -0.01352097    0.01239121
     atom    7 type  1   force =     0.01261166   -0.00619412    0.04777690
     atom    8 type  1   force =    -0.02100420    0.00630077    0.00997918
     atom    9 type  1   force =     0.01174881    0.02435622   -0.02078071
     atom   10 type  1   force =    -0.03551743    0.03757866   -0.01405686
     atom   11 type  1   force =    -0.02575935   -0.02127996   -0.02041265
     atom   12 type  1   force =     0.01953046   -0.04121509   -0.02176343
     atom   13 type  1   force =     0.02680183   -0.01902625    0.08375065
     atom   14 type  1   force =     0.00424825   -0.02490513    0.01414219
     atom   15 type  1   force =    -0.02901419   -0.02472889    0.04432129
     atom   16 type  1   force =     0.01029221    0.00097365   -0.00177783
     atom   17 type  2   force =    -0.01434228    0.01256517   -0.00263180
     atom   18 type  2   force =     0.01527303   -0.02981032    0.02095354
     atom   19 type  2   force =     0.01588736    0.01416963   -0.01322848
     atom   20 type  2   force =     0.01791944    0.00443175    0.01013712
     atom   21 type  2   force =    -0.00140028   -0.01797315   -0.00184796
     atom   22 type  2   force =    -0.01205402   -0.00424082    0.00999071
     atom   23 type  2   force =     0.00390054    0.01135882   -0.00542411
     atom   24 type  2   force =    -0.04322419   -0.04109534   -0.02136678
     atom   25 type  2   force =    -0.02323946    0.03283624    0.03364072
     atom   26 type  2   force =    -0.01210954   -0.01017725    0.01088789
     atom   27 type  2   force =     0.01719376    0.01789693   -0.02757589
     atom   28 type  2   force =     0.01189160    0.00154027    0.00618478
     atom   29 type  2   force =    -0.03769435    0.02653210   -0.05939573
     atom   30 type  2   force =    -0.00338629    0.00303329    0.01207680
     atom   31 type  2   force =     0.00755205   -0.01017420   -0.00706806
     atom   32 type  2   force =    -0.00662309    0.00130325   -0.03324508
     atom   33 type  2   force =    -0.02269776    0.02371863    0.02651838
     atom   34 type  2   force =     0.01279971   -0.01675412   -0.00518025
     atom   35 type  2   force =     0.05035670    0.04350634   -0.03476557
     atom   36 type  2   force =     0.00817145    0.03011598    0.00884497
     atom   37 type  2   force =     0.00554009    0.00316220    0.00804506
     atom   38 type  2   force =    -0.00768891   -0.02811834    0.00641272
     atom   39 type  2   force =    -0.01346816    0.00049063   -0.00107634
     atom   40 type  2   force =    -0.01189715   -0.01436516   -0.00990833
     atom   41 type  2   force =    -0.01969272    0.00069729   -0.00111367
     atom   42 type  2   force =     0.01401730   -0.02431908    0.01698191
     atom   43 type  2   force =     0.02840828    0.03695717   -0.00350183
     atom   44 type  2   force =     0.01369770    0.01510486   -0.01557574
     atom   45 type  2   force =    -0.00707515    0.00270088   -0.01146436
     atom   46 type  2   force =    -0.00964159   -0.01208849   -0.00478805
     atom   47 type  2   force =     0.00214377   -0.01475105   -0.04823156
     atom   48 type  2   force =     0.00214094   -0.02091708    0.00055775

     Total force =     0.276766     Total SCF correction =     0.001888
 
     init_run     :      6.79s CPU      7.10s WALL (       1 calls)
     electrons    :    173.64s CPU    178.88s WALL (       1 calls)
     forces       :      3.88s CPU      4.00s WALL (       1 calls)

     Called by init_run:
     wfcinit      :      3.99s CPU      4.11s WALL (       1 calls)
     potinit      :      0.78s CPU      0.80s WALL (       1 calls)
     hinit0       :      0.95s CPU      1.02s WALL (       1 calls)

     Called by electrons:
     c_bands      :    134.15s CPU    136.29s WALL (      17 calls)
     sum_band     :     26.70s CPU     28.61s WALL (      17 calls)
     v_of_rho     :      2.27s CPU      2.38s WALL (      18 calls)
     newd         :      6.73s CPU      7.61s WALL (      18 calls)
     mix_rho      :      3.96s CPU      4.20s WALL (      17 calls)

     Called by c_bands:
     init_us_2    :      2.09s CPU      2.10s WALL (     144 calls)
     cegterg      :    124.71s CPU    126.80s WALL (      68 calls)

     Called by sum_band:
     sum_band:bec :      0.18s CPU      0.18s WALL (      68 calls)
     addusdens    :      9.62s CPU     11.26s WALL (      17 calls)

     Called by *egterg:
     h_psi        :     67.47s CPU     68.75s WALL (     300 calls)
     s_psi        :     14.60s CPU     14.61s WALL (     300 calls)
     g_psi        :      0.27s CPU      0.28s WALL (     228 calls)
     cdiaghg      :     21.24s CPU     21.60s WALL (     296 calls)

     Called by h_psi:
     h_psi:pot    :     67.02s CPU     68.05s WALL (     300 calls)
     h_psi:calbec :     15.41s CPU     15.81s WALL (     300 calls)
     vloc_psi     :     36.46s CPU     37.02s WALL (     300 calls)
     add_vuspsi   :     15.15s CPU     15.22s WALL (     300 calls)

     General routines
     calbec       :     23.00s CPU     23.55s WALL (     384 calls)
     fft          :      2.21s CPU      2.39s WALL (     243 calls)
     ffts         :      1.78s CPU      1.97s WALL (    1275 calls)
     fftw         :     41.02s CPU     41.65s WALL (   67738 calls)
     interpolate  :      0.20s CPU      0.21s WALL (      18 calls)
 
     Parallel routines
     fft_scatt_xy :      4.22s CPU      4.29s WALL (   69256 calls)
     fft_scatt_yz :     20.09s CPU     20.65s WALL (   69256 calls)
 
     PWSCF        :   3m 5.11s CPU   3m10.92s WALL

 
   This run was terminated on:  22:25:29  24Dec2021            

=------------------------------------------------------------------------------=
   JOB DONE.
=------------------------------------------------------------------------------=
