
     Program PWSCF v.6.4 starts on 25Dec2021 at  0:11:35 

     This program is part of the open-source Quantum ESPRESSO suite
     for quantum simulation of materials; please cite
         "P. Giannozzi et al., J. Phys.:Condens. Matter 21 395502 (2009);
         "P. Giannozzi et al., J. Phys.:Condens. Matter 29 465901 (2017);
          URL http://www.quantum-espresso.org", 
     in publications or presentations arising from this work. More details at
     http://www.quantum-espresso.org/quote

     Parallel version (MPI), running on    40 processors

     MPI processes distributed on     1 nodes
     R & G space division:  proc/nbgrp/npool/nimage =      40
     Waiting for input...
     Reading input from standard input
Warning: card    &IONS ignored
Warning: card      ION_DYNAMICS = 'BFGS' ignored
Warning: card   / ignored
Warning: card    &CELL ignored
Warning: card      CELL_DYNAMICS = 'BFGS', ignored
Warning: card    / ignored

     Current dimensions of program PWSCF are:
     Max number of different atomic species (ntypx) = 10
     Max number of k-points (npk) =  40000
     Max angular momentum in pseudopotentials (lmaxx) =  3

     Subspace diagonalization in iterative solution of the eigenvalue problem:
     one sub-group per band group will be used
     scalapack distributed-memory algorithm (size of sub-group:  4*  4 procs)

 
     Parallelization info
     --------------------
     sticks:   dense  smooth     PW     G-vecs:    dense   smooth      PW
     Min          91      45     12                16315     5759     830
     Max          92      46     13                16342     5780     849
     Sum        3667    1813    511               652953   230589   33633
 


     bravais-lattice index     =            0
     lattice parameter (alat)  =      12.1536  a.u.
     unit-cell volume          =    5660.1662 (a.u.)^3
     number of atoms/cell      =           36
     number of atomic types    =            2
     number of electrons       =       216.00
     number of Kohn-Sham states=          130
     kinetic-energy cutoff     =      45.0000  Ry
     charge density cutoff     =     360.0000  Ry
     convergence threshold     =      1.0E-06
     mixing beta               =       0.7000
     number of iterations used =            8  local-TF  mixing
     Exchange-correlation      = SLA PW GGX GGC ( 1  4  2  2 0 0)

     celldm(1)=  12.153560  celldm(2)=   0.000000  celldm(3)=   0.000000
     celldm(4)=   0.000000  celldm(5)=   0.000000  celldm(6)=   0.000000

     crystal axes: (cart. coord. in units of alat)
               a(1) = (   1.000000   0.000000   0.000000 )  
               a(2) = (  -0.500000   0.866026   0.000000 )  
               a(3) = (   0.000000   0.000000   3.640726 )  

     reciprocal axes: (cart. coord. in units 2 pi/alat)
               b(1) = (  1.000000  0.577350  0.000000 )  
               b(2) = (  0.000000  1.154700  0.000000 )  
               b(3) = (  0.000000  0.000000  0.274670 )  


     PseudoPot. # 1 for Mo read from file:
     ~/pseudo/Mo.pw91-n-van.UPF
     MD5 check sum: Not computed, couldn't open file
     Pseudo is Ultrasoft + core correction, Zval =  6.0
     Generated by new atomic code, or converted to UPF format
     Using radial grid of  965 points,  3 beta functions with: 
                l(1) =   1
                l(2) =   2
                l(3) =   2
     Q(r) pseudized with  8 coefficients,  rinner =    1.000   1.000   1.000
                                                       1.200   1.200

     PseudoPot. # 2 for S  read from file:
     ~/pseudo/S.pw91-van_ak.UPF
     MD5 check sum: Not computed, couldn't open file
     Pseudo is Ultrasoft, Zval =  6.0
     Generated by new atomic code, or converted to UPF format
     Using radial grid of  811 points,  6 beta functions with: 
                l(1) =   0
                l(2) =   0
                l(3) =   1
                l(4) =   1
                l(5) =   2
                l(6) =   2
     Q(r) pseudized with  8 coefficients,  rinner =    1.100   1.100   1.100
                                                       1.100   1.100

     atomic species   valence    mass     pseudopotential
        Mo             6.00    95.50000     Mo( 1.00)
        S              6.00    32.06500     S ( 1.00)

     No symmetry found



   Cartesian axes

     site n.     atom                  positions (alat units)
         1           Mo  tau(   1) = (   0.1337481   0.7896483   1.4695957  )
         2           Mo  tau(   2) = (   0.3871401   0.0657256   2.5802810  )
         3           Mo  tau(   3) = (   0.3733838   0.6570999   0.3328555  )
         4           Mo  tau(   4) = (   0.3823475   0.3564083   1.4699714  )
         5           Mo  tau(   5) = (   0.6339533   0.5056382   2.6009813  )
         6           Mo  tau(   6) = (   0.6318926   0.2166932   0.3392142  )
         7           Mo  tau(   7) = (   0.8801218   0.0601773   2.5845769  )
         8           Mo  tau(   8) = (  -0.1123679   0.3654193   1.4883083  )
         9           Mo  tau(   9) = (  -0.3573535   0.7881419   1.4813027  )
        10           Mo  tau(  10) = (   0.1298842   0.4968857   2.6012905  )
        11           Mo  tau(  11) = (   0.1241161   0.2226115   0.3406821  )
        12           Mo  tau(  12) = (  -0.1212051   0.6463617   0.3209843  )
        13           S   tau(  13) = (   0.1326232   0.7871200   2.3361373  )
        14           S   tau(  14) = (   0.1406964   0.7850317   2.8402256  )
        15           S   tau(  15) = (   0.3765788   0.0761349   0.0754921  )
        16           S   tau(  16) = (   0.3728117   0.0664824   0.5739902  )
        17           S   tau(  17) = (   0.3913498   0.6473606   1.2347926  )
        18           S   tau(  18) = (   0.3904795   0.6403603   1.7269488  )
        19           S   tau(  19) = (   0.3829211   0.3587023   2.3578192  )
        20           S   tau(  20) = (   0.3829236   0.3529792   2.8474496  )
        21           S   tau(  21) = (   0.6162538   0.5108160   0.0870154  )
        22           S   tau(  22) = (   0.6251745   0.5011813   0.5844125  )
        23           S   tau(  23) = (   0.6281835   0.2191312   1.2429996  )
        24           S   tau(  24) = (   0.6339809   0.2017142   1.7242017  )
        25           S   tau(  25) = (   0.8677971   0.0707192   0.0964569  )
        26           S   tau(  26) = (   0.8788252   0.0770349   0.5859270  )
        27           S   tau(  27) = (  -0.1085866   0.3514871   2.3456904  )
        28           S   tau(  28) = (  -0.1135136   0.3580409   2.8254804  )
        29           S   tau(  29) = (  -0.3724396   0.7885415   2.3403813  )
        30           S   tau(  30) = (  -0.3740966   0.7884064   2.8420619  )
        31           S   tau(  31) = (   0.1293417   0.5111511   0.0953588  )
        32           S   tau(  32) = (   0.1184781   0.5020295   0.5857241  )
        33           S   tau(  33) = (   0.1314983   0.2233227   1.2347881  )
        34           S   tau(  34) = (   0.1423312   0.2166719   1.7244395  )
        35           S   tau(  35) = (  -0.1085193   0.6398278   1.2350069  )
        36           S   tau(  36) = (  -0.1211951   0.6359530   1.7256779  )

     number of k points=     5  Marzari-Vanderbilt smearing, width (Ry)=  0.0200
                       cart. coord. in units 2pi/alat
        k(    1) = (   0.0000000   0.0000000   0.0000000), wk =   0.2222222
        k(    2) = (   0.0000000   0.3849001   0.0000000), wk =   0.4444444
        k(    3) = (   0.3333333   0.5773502   0.0000000), wk =   0.4444444
        k(    4) = (  -0.3333333   0.1924501   0.0000000), wk =   0.4444444
        k(    5) = (   0.3333333   0.1924501   0.0000000), wk =   0.4444444

     Dense  grid:   652953 G-vectors     FFT dimensions: (  75,  75, 270)

     Smooth grid:   230589 G-vectors     FFT dimensions: (  54,  54, 192)

     Estimated max dynamical RAM per process >     103.81 MB

     Estimated total dynamical RAM >       4.06 GB

     Initial potential from superposition of free atoms

     starting charge  215.98107, renormalised to  216.00000
     Starting wfcs are  204 randomized atomic wfcs

     total cpu time spent up to now is        4.7 secs

     Self-consistent Calculation

     iteration #  1     ecut=    45.00 Ry     beta= 0.70
     Davidson diagonalization with overlap
     ethr =  1.00E-02,  avg # of iterations =  2.0

     total cpu time spent up to now is       11.7 secs

     total energy              =    -844.15305698 Ry
     Harris-Foulkes estimate   =    -846.76320262 Ry
     estimated scf accuracy    <       6.67569968 Ry

     iteration #  2     ecut=    45.00 Ry     beta= 0.70
     Davidson diagonalization with overlap
     ethr =  3.09E-03,  avg # of iterations =  2.2

     total cpu time spent up to now is       17.5 secs

     total energy              =    -845.38339073 Ry
     Harris-Foulkes estimate   =    -845.55343426 Ry
     estimated scf accuracy    <       0.88815387 Ry

     iteration #  3     ecut=    45.00 Ry     beta= 0.70
     Davidson diagonalization with overlap
     ethr =  4.11E-04,  avg # of iterations =  2.0

     total cpu time spent up to now is       22.9 secs

     total energy              =    -845.38853954 Ry
     Harris-Foulkes estimate   =    -845.46200361 Ry
     estimated scf accuracy    <       0.21057258 Ry

     iteration #  4     ecut=    45.00 Ry     beta= 0.70
     Davidson diagonalization with overlap
     ethr =  9.75E-05,  avg # of iterations =  3.0

     total cpu time spent up to now is       29.7 secs

     total energy              =    -845.44211232 Ry
     Harris-Foulkes estimate   =    -845.46631847 Ry
     estimated scf accuracy    <       0.11314336 Ry

     iteration #  5     ecut=    45.00 Ry     beta= 0.70
     Davidson diagonalization with overlap
     ethr =  5.24E-05,  avg # of iterations =  1.6

     total cpu time spent up to now is       34.7 secs

     total energy              =    -845.44273503 Ry
     Harris-Foulkes estimate   =    -845.44948054 Ry
     estimated scf accuracy    <       0.01854082 Ry

     iteration #  6     ecut=    45.00 Ry     beta= 0.70
     Davidson diagonalization with overlap
     ethr =  8.58E-06,  avg # of iterations =  7.0

     total cpu time spent up to now is       45.3 secs

     total energy              =    -845.44851013 Ry
     Harris-Foulkes estimate   =    -845.45136128 Ry
     estimated scf accuracy    <       0.01463868 Ry

     iteration #  7     ecut=    45.00 Ry     beta= 0.70
     Davidson diagonalization with overlap
     ethr =  6.78E-06,  avg # of iterations =  1.6

     total cpu time spent up to now is       50.3 secs

     total energy              =    -845.44891294 Ry
     Harris-Foulkes estimate   =    -845.44929450 Ry
     estimated scf accuracy    <       0.00297727 Ry

     iteration #  8     ecut=    45.00 Ry     beta= 0.70
     Davidson diagonalization with overlap
     ethr =  1.38E-06,  avg # of iterations =  3.2

     total cpu time spent up to now is       56.2 secs

     total energy              =    -845.44913754 Ry
     Harris-Foulkes estimate   =    -845.44921249 Ry
     estimated scf accuracy    <       0.00056293 Ry

     iteration #  9     ecut=    45.00 Ry     beta= 0.70
     Davidson diagonalization with overlap
     ethr =  2.61E-07,  avg # of iterations =  3.2

     total cpu time spent up to now is       62.1 secs

     total energy              =    -845.44915315 Ry
     Harris-Foulkes estimate   =    -845.44920223 Ry
     estimated scf accuracy    <       0.00020811 Ry

     iteration # 10     ecut=    45.00 Ry     beta= 0.70
     Davidson diagonalization with overlap
     ethr =  9.63E-08,  avg # of iterations =  3.0

     total cpu time spent up to now is       68.1 secs

     total energy              =    -845.44917241 Ry
     Harris-Foulkes estimate   =    -845.44918191 Ry
     estimated scf accuracy    <       0.00002769 Ry

     iteration # 11     ecut=    45.00 Ry     beta= 0.70
     Davidson diagonalization with overlap
     ethr =  1.28E-08,  avg # of iterations =  4.0

     total cpu time spent up to now is       75.6 secs

     total energy              =    -845.44917942 Ry
     Harris-Foulkes estimate   =    -845.44918640 Ry
     estimated scf accuracy    <       0.00004091 Ry

     iteration # 12     ecut=    45.00 Ry     beta= 0.70
     Davidson diagonalization with overlap
     ethr =  1.28E-08,  avg # of iterations =  2.2

     total cpu time spent up to now is       80.8 secs

     total energy              =    -845.44917870 Ry
     Harris-Foulkes estimate   =    -845.44918118 Ry
     estimated scf accuracy    <       0.00001044 Ry

     iteration # 13     ecut=    45.00 Ry     beta= 0.70
     Davidson diagonalization with overlap
     ethr =  4.83E-09,  avg # of iterations =  3.0

     total cpu time spent up to now is       87.2 secs

     total energy              =    -845.44918060 Ry
     Harris-Foulkes estimate   =    -845.44918105 Ry
     estimated scf accuracy    <       0.00000277 Ry

     iteration # 14     ecut=    45.00 Ry     beta= 0.70
     Davidson diagonalization with overlap
     ethr =  1.28E-09,  avg # of iterations =  2.0

     total cpu time spent up to now is       92.2 secs

     End of self-consistent calculation

          k = 0.0000 0.0000 0.0000 ( 28709 PWs)   bands (ev):

    -9.1651  -9.0823  -9.0619  -7.9548  -7.9069  -7.8969  -7.4994  -7.4479
    -7.4392  -7.4268  -7.3661  -7.3600  -7.3153  -7.2670  -7.2361  -7.2276
    -7.1377  -7.1052  -7.0974  -7.0669  -7.0464  -7.0418  -7.0192  -6.9135
    -0.8233  -0.8161  -0.7506  -0.7468  -0.7336  -0.7039  -0.7021  -0.6914
    -0.6432  -0.6332  -0.5407  -0.4967   0.1363   0.1443   0.1672   0.2029
     0.2223   0.2407   0.2447   0.2485   0.3005   0.7566   0.8522   0.8786
     0.8836   0.9000   0.9186   0.9816   0.9974   1.0291   1.6444   1.6750
     1.7367   1.7370   1.8167   1.8207   1.8370   1.8378   1.8925   2.1811
     2.2652   2.3347   2.3528   2.3801   2.4224   2.8252   2.9202   2.9434
     2.9840   2.9957   3.0362   3.0784   3.1018   3.1085   3.1564   3.1746
     3.2696   3.3220   3.3879   3.4112   3.4325   3.4800   3.5124   3.8267
     3.9209   3.9421   3.9676   4.0009   4.0191   4.0222   4.0591   4.1025
     4.2195   4.2398   4.2566   4.2736   4.2909   4.3220   4.3371   4.3532
     4.3853   4.7570   4.9359   5.0500   6.7850   6.7977   6.8105   6.8193
     6.8628   6.9044   6.9103   6.9223   6.9388   7.3275   7.3578   7.3633
     7.3703   7.3878   7.3991   7.4275   7.4297   7.4502   7.5089   7.5370
     7.5661   7.6532

          k = 0.0000 0.3849 0.0000 ( 28834 PWs)   bands (ev):

    -8.8029  -8.7234  -8.6999  -7.9482  -7.8767  -7.8762  -7.7865  -7.7363
    -7.7155  -7.4727  -7.4533  -7.4436  -7.3963  -7.3727  -7.3467  -7.3058
    -7.2685  -7.2603  -7.1008  -7.0846  -7.0663  -7.0497  -7.0270  -6.9692
    -0.3846  -0.3499  -0.3194  -0.2845  -0.2821  -0.2783  -0.2442  -0.2061
    -0.1865  -0.1344  -0.1180  -0.0803   0.0290   0.1093   0.1457   0.1537
     0.1740   0.1839   0.7641   0.8408   0.8613   0.9634   1.0254   1.0373
     1.0675   1.1135   1.1318   1.1758   1.1923   1.2120   1.5160   1.5708
     1.6014   1.6335   1.7280   1.7573   1.7756   1.8098   1.8370   1.9857
     2.0796   2.1000   2.1279   2.1479   2.1637   2.4325   2.5377   2.5816
     2.5902   2.6335   2.6434   2.6540   2.7784   2.8233   2.9144   2.9342
     2.9613   3.0918   3.1031   3.1655   3.1929   3.2050   3.2381   3.2656
     3.3092   3.3579   3.5167   3.6119   3.6300   3.6840   3.7481   3.8515
     3.9110   4.0554   4.0938   4.3123   4.3376   4.4250   4.4714   4.4843
     4.5119   4.5828   4.6499   4.6787   6.8091   6.8165   6.8340   6.8533
     6.8753   6.8953   6.9412   6.9703   7.0121   7.0181   7.0512   7.0981
     7.1458   7.1492   7.2124   7.2877   7.3335   7.3428   7.3504   7.3805
     7.4065   7.4287

          k = 0.3333 0.5774 0.0000 ( 28893 PWs)   bands (ev):

    -8.2691  -8.2097  -8.2024  -8.1987  -8.1094  -8.0969  -8.0785  -8.0017
    -7.9671  -7.5784  -7.4826  -7.4769  -7.4579  -7.4390  -7.4155  -7.3964
    -7.3725  -7.3403  -7.1768  -7.0739  -7.0330  -6.9500  -6.9117  -6.8684
    -0.4219  -0.3386  -0.3148  -0.0692  -0.0119   0.0300   0.0500   0.0922
     0.1237   0.1487   0.1869   0.2609   0.3846   0.4598   0.4732   0.8492
     0.9165   0.9432   0.9786   1.0033   1.0403   1.0795   1.0933   1.1422
     1.1453   1.1593   1.2018   1.2362   1.2658   1.2997   1.3017   1.3432
     1.3551   1.3749   1.3899   1.4082   1.4301   1.4676   1.4718   1.6674
     1.7505   1.7682   1.8149   1.8450   1.8529   1.8748   1.9087   1.9263
     2.0677   2.0852   2.0888   2.7230   2.7247   2.7388   2.7999   2.9214
     2.9513   2.9607   3.0025   3.0266   3.0301   3.0653   3.1333   3.6875
     3.7299   3.7648   3.7975   3.8118   3.8350   3.8550   3.8852   3.9268
     4.0686   4.0989   4.1017   4.1167   4.1363   4.1673   4.1769   4.1952
     4.1995   4.8585   4.8920   4.9104   6.3586   6.4099   6.4499   6.5597
     6.5968   6.6539   6.6736   6.7149   6.7437   6.7954   6.8143   6.8680
     7.0943   7.1084   7.1474   7.1551   7.1827   7.2158   7.2335   7.2692
     7.2908   7.3917

          k =-0.3333 0.1925 0.0000 ( 28834 PWs)   bands (ev):

    -8.8031  -8.7242  -8.7056  -7.9522  -7.8872  -7.8451  -7.7822  -7.7153
    -7.7103  -7.5228  -7.4656  -7.4301  -7.4002  -7.3477  -7.3409  -7.3374
    -7.2753  -7.1901  -7.1477  -7.1209  -7.0946  -7.0571  -7.0156  -6.9125
    -0.4020  -0.3515  -0.3234  -0.3054  -0.2893  -0.2719  -0.2491  -0.2033
    -0.1666  -0.1575  -0.0995  -0.0500   0.0481   0.1344   0.1385   0.1414
     0.2096   0.2167   0.7563   0.8108   0.8315   0.9384   1.0396   1.0641
     1.0810   1.1062   1.1130   1.1311   1.1781   1.2752   1.4907   1.5933
     1.6272   1.6357   1.7139   1.7271   1.7473   1.8024   1.9010   1.9642
     2.0140   2.0584   2.1117   2.1630   2.1975   2.4258   2.5434   2.5543
     2.5939   2.6585   2.6929   2.7242   2.7501   2.7682   2.8250   2.9125
     3.0533   3.1158   3.1287   3.1549   3.1995   3.2096   3.2617   3.2780
     3.3150   3.3961   3.5094   3.6044   3.6485   3.6835   3.7787   3.8915
     3.9349   3.9581   4.0163   4.3008   4.3332   4.3672   4.4867   4.5281
     4.5434   4.6123   4.6205   4.6667   6.7726   6.8033   6.8303   6.8490
     6.8793   6.8940   6.9574   6.9688   6.9738   7.0216   7.0395   7.0617
     7.1214   7.1431   7.1772   7.2469   7.2583   7.2759   7.3662   7.3777
     7.3970   7.4220

          k = 0.3333 0.1925 0.0000 ( 28834 PWs)   bands (ev):

    -8.8039  -8.7204  -8.7052  -7.9656  -7.9018  -7.8888  -7.7792  -7.7198
    -7.6961  -7.4560  -7.4315  -7.4247  -7.3732  -7.3631  -7.3465  -7.3377
    -7.2804  -7.2344  -7.1737  -7.0709  -7.0575  -7.0407  -7.0274  -6.9912
    -0.4129  -0.3390  -0.3203  -0.2992  -0.2899  -0.2626  -0.2555  -0.2092
    -0.1662  -0.1260  -0.1092  -0.0855   0.0722   0.1238   0.1425   0.1731
     0.2058   0.2159   0.7634   0.8366   0.8501   0.9407   1.0129   1.0412
     1.0850   1.1128   1.1451   1.1716   1.1831   1.2072   1.4914   1.5578
     1.5920   1.6367   1.7096   1.7496   1.7653   1.7937   1.8259   2.0074
     2.0287   2.1095   2.1218   2.1353   2.2103   2.4943   2.5088   2.5647
     2.6093   2.6331   2.6539   2.6584   2.8008   2.8049   2.8369   2.8972
     2.9477   3.0827   3.1216   3.1955   3.2003   3.2039   3.2322   3.2651
     3.3234   3.3804   3.5483   3.6130   3.6329   3.6771   3.7864   3.8533
     3.9661   4.0256   4.0760   4.2520   4.3866   4.4051   4.4759   4.4866
     4.4990   4.5912   4.6510   4.6948   6.7705   6.8325   6.8350   6.8595
     6.8904   6.8995   6.9246   6.9860   6.9938   7.0142   7.0358   7.0673
     7.1093   7.1370   7.1933   7.2283   7.2739   7.2916   7.3159   7.3609
     7.3974   7.4402

     the Fermi energy is     5.0106 ev

!    total energy              =    -845.44918007 Ry
     Harris-Foulkes estimate   =    -845.44918082 Ry
     estimated scf accuracy    <       0.00000079 Ry

     The total energy is the sum of the following terms:

     one-electron contribution =    -485.89480459 Ry
     hartree contribution      =     354.96145324 Ry
     xc contribution           =    -334.15866564 Ry
     ewald contribution        =    -380.38038712 Ry
     smearing contrib. (-TS)   =       0.02322405 Ry

     convergence has been achieved in  14 iterations

     Forces acting on atoms (cartesian axes, Ry/au):

     atom    1 type  1   force =     0.02269540   -0.01943671    0.07360395
     atom    2 type  1   force =    -0.02646030   -0.01486327    0.07899483
     atom    3 type  1   force =     0.01062337   -0.03844706    0.07337527
     atom    4 type  1   force =     0.01415994    0.02413886    0.08220154
     atom    5 type  1   force =    -0.01005291   -0.02681707   -0.05111755
     atom    6 type  1   force =    -0.06226667    0.01095757   -0.01962468
     atom    7 type  1   force =     0.01241164    0.02574301    0.02284307
     atom    8 type  1   force =    -0.02256779   -0.08042391   -0.03579800
     atom    9 type  1   force =    -0.03158228    0.02462855   -0.01029970
     atom   10 type  1   force =     0.05159747    0.02984545   -0.06005445
     atom   11 type  1   force =     0.01468552   -0.03378977   -0.04441428
     atom   12 type  1   force =    -0.04508800    0.03263050    0.06783109
     atom   13 type  2   force =    -0.00261738   -0.01888033    0.01714784
     atom   14 type  2   force =    -0.02584885    0.01477588   -0.01399924
     atom   15 type  2   force =    -0.00083400    0.00411650    0.04347388
     atom   16 type  2   force =     0.01421757   -0.00060566   -0.00237027
     atom   17 type  2   force =    -0.00083197    0.00821927   -0.01850019
     atom   18 type  2   force =    -0.01349755    0.01104842   -0.02954463
     atom   19 type  2   force =     0.00675993    0.01196871   -0.02295300
     atom   20 type  2   force =     0.00570024   -0.01008490   -0.02524173
     atom   21 type  2   force =     0.01735881   -0.01870125    0.00068752
     atom   22 type  2   force =     0.00578789    0.02231962   -0.02857093
     atom   23 type  2   force =     0.04124779   -0.00921680   -0.04702185
     atom   24 type  2   force =    -0.00538361    0.02055537   -0.01028547
     atom   25 type  2   force =     0.03146198    0.02753542   -0.03129759
     atom   26 type  2   force =    -0.00414331   -0.00948015    0.00078331
     atom   27 type  2   force =    -0.02707029    0.01580457    0.00794056
     atom   28 type  2   force =    -0.02714327   -0.03748717    0.05937209
     atom   29 type  2   force =     0.02020353   -0.01149588    0.00902295
     atom   30 type  2   force =     0.02309863    0.02034116   -0.02041021
     atom   31 type  2   force =     0.00459956   -0.02473329   -0.04400587
     atom   32 type  2   force =     0.01245172    0.02842753   -0.01696937
     atom   33 type  2   force =    -0.00829211   -0.03124342   -0.00885029
     atom   34 type  2   force =    -0.00680349   -0.01150222    0.00185577
     atom   35 type  2   force =    -0.01978546    0.01381178   -0.02323491
     atom   36 type  2   force =     0.03120826    0.05034064    0.02543051

     Total force =     0.317363     Total SCF correction =     0.002465
 
     init_run     :      3.56s CPU      3.81s WALL (       1 calls)
     electrons    :     84.92s CPU     87.54s WALL (       1 calls)
     forces       :      2.01s CPU      2.09s WALL (       1 calls)

     Called by init_run:
     wfcinit      :      2.25s CPU      2.35s WALL (       1 calls)
     potinit      :      0.28s CPU      0.28s WALL (       1 calls)
     hinit0       :      0.41s CPU      0.46s WALL (       1 calls)

     Called by electrons:
     c_bands      :     66.47s CPU     67.37s WALL (      14 calls)
     sum_band     :     13.31s CPU     14.40s WALL (      14 calls)
     v_of_rho     :      0.91s CPU      0.97s WALL (      15 calls)
     newd         :      3.22s CPU      3.81s WALL (      15 calls)
     mix_rho      :      1.03s CPU      1.05s WALL (      14 calls)

     Called by c_bands:
     init_us_2    :      1.71s CPU      1.73s WALL (     150 calls)
     cegterg      :     61.63s CPU     62.50s WALL (      70 calls)

     Called by sum_band:
     sum_band:bec :      0.12s CPU      0.13s WALL (      70 calls)
     addusdens    :      5.22s CPU      6.14s WALL (      14 calls)

     Called by *egterg:
     h_psi        :     32.74s CPU     33.35s WALL (     275 calls)
     s_psi        :      6.51s CPU      6.53s WALL (     275 calls)
     g_psi        :      0.17s CPU      0.17s WALL (     200 calls)
     cdiaghg      :     12.05s CPU     12.29s WALL (     270 calls)

     Called by h_psi:
     h_psi:pot    :     32.34s CPU     32.94s WALL (     275 calls)
     h_psi:calbec :      7.30s CPU      7.44s WALL (     275 calls)
     vloc_psi     :     18.31s CPU     18.74s WALL (     275 calls)
     add_vuspsi   :      6.72s CPU      6.75s WALL (     275 calls)

     General routines
     calbec       :     10.83s CPU     11.05s WALL (     365 calls)
     fft          :      0.76s CPU      0.84s WALL (     204 calls)
     ffts         :      0.43s CPU      0.44s WALL (     492 calls)
     fftw         :     20.61s CPU     21.07s WALL (   55468 calls)
     interpolate  :      0.08s CPU      0.08s WALL (      15 calls)
 
     Parallel routines
     fft_scatt_xy :      2.22s CPU      2.27s WALL (   56164 calls)
     fft_scatt_yz :      9.93s CPU     10.21s WALL (   56164 calls)
 
     PWSCF        :   1m31.27s CPU   1m34.41s WALL

 
   This run was terminated on:   0:13: 9  25Dec2021            

=------------------------------------------------------------------------------=
   JOB DONE.
=------------------------------------------------------------------------------=

     Program PWSCF v.6.4 starts on 25Dec2021 at  0:15:47 

     This program is part of the open-source Quantum ESPRESSO suite
     for quantum simulation of materials; please cite
         "P. Giannozzi et al., J. Phys.:Condens. Matter 21 395502 (2009);
         "P. Giannozzi et al., J. Phys.:Condens. Matter 29 465901 (2017);
          URL http://www.quantum-espresso.org", 
     in publications or presentations arising from this work. More details at
     http://www.quantum-espresso.org/quote

     Parallel version (MPI), running on    40 processors

     MPI processes distributed on     1 nodes
     R & G space division:  proc/nbgrp/npool/nimage =      40
     Waiting for input...
     Reading input from standard input
Warning: card    &IONS ignored
Warning: card      ION_DYNAMICS = 'BFGS' ignored
Warning: card   / ignored
Warning: card    &CELL ignored
Warning: card      CELL_DYNAMICS = 'BFGS', ignored
Warning: card    / ignored

     Current dimensions of program PWSCF are:
     Max number of different atomic species (ntypx) = 10
     Max number of k-points (npk) =  40000
     Max angular momentum in pseudopotentials (lmaxx) =  3

     Subspace diagonalization in iterative solution of the eigenvalue problem:
     one sub-group per band group will be used
     scalapack distributed-memory algorithm (size of sub-group:  4*  4 procs)

 
     Parallelization info
     --------------------
     sticks:   dense  smooth     PW     G-vecs:    dense   smooth      PW
     Min          91      45     12                16315     5759     830
     Max          92      46     13                16342     5780     849
     Sum        3667    1813    511               652953   230589   33633
 


     bravais-lattice index     =            0
     lattice parameter (alat)  =      12.1536  a.u.
     unit-cell volume          =    5660.1662 (a.u.)^3
     number of atoms/cell      =           36
     number of atomic types    =            2
     number of electrons       =       216.00
     number of Kohn-Sham states=          130
     kinetic-energy cutoff     =      45.0000  Ry
     charge density cutoff     =     360.0000  Ry
     convergence threshold     =      1.0E-06
     mixing beta               =       0.7000
     number of iterations used =            8  local-TF  mixing
     Exchange-correlation      = SLA PW GGX GGC ( 1  4  2  2 0 0)

     celldm(1)=  12.153560  celldm(2)=   0.000000  celldm(3)=   0.000000
     celldm(4)=   0.000000  celldm(5)=   0.000000  celldm(6)=   0.000000

     crystal axes: (cart. coord. in units of alat)
               a(1) = (   1.000000   0.000000   0.000000 )  
               a(2) = (  -0.500000   0.866026   0.000000 )  
               a(3) = (   0.000000   0.000000   3.640726 )  

     reciprocal axes: (cart. coord. in units 2 pi/alat)
               b(1) = (  1.000000  0.577350  0.000000 )  
               b(2) = (  0.000000  1.154700  0.000000 )  
               b(3) = (  0.000000  0.000000  0.274670 )  


     PseudoPot. # 1 for Mo read from file:
     ~/pseudo/Mo.pw91-n-van.UPF
     MD5 check sum: Not computed, couldn't open file
     Pseudo is Ultrasoft + core correction, Zval =  6.0
     Generated by new atomic code, or converted to UPF format
     Using radial grid of  965 points,  3 beta functions with: 
                l(1) =   1
                l(2) =   2
                l(3) =   2
     Q(r) pseudized with  8 coefficients,  rinner =    1.000   1.000   1.000
                                                       1.200   1.200

     PseudoPot. # 2 for S  read from file:
     ~/pseudo/S.pw91-van_ak.UPF
     MD5 check sum: Not computed, couldn't open file
     Pseudo is Ultrasoft, Zval =  6.0
     Generated by new atomic code, or converted to UPF format
     Using radial grid of  811 points,  6 beta functions with: 
                l(1) =   0
                l(2) =   0
                l(3) =   1
                l(4) =   1
                l(5) =   2
                l(6) =   2
     Q(r) pseudized with  8 coefficients,  rinner =    1.100   1.100   1.100
                                                       1.100   1.100

     atomic species   valence    mass     pseudopotential
        Mo             6.00    95.50000     Mo( 1.00)
        S              6.00    32.06500     S ( 1.00)

     No symmetry found



   Cartesian axes

     site n.     atom                  positions (alat units)
         1           Mo  tau(   1) = (   0.1337481   0.7896483   1.4695957  )
         2           Mo  tau(   2) = (   0.3871401   0.0657256   2.5802810  )
         3           Mo  tau(   3) = (   0.3733838   0.6570999   0.3328555  )
         4           Mo  tau(   4) = (   0.3823475   0.3564083   1.4699714  )
         5           Mo  tau(   5) = (   0.6339533   0.5056382   2.6009813  )
         6           Mo  tau(   6) = (   0.6318926   0.2166932   0.3392142  )
         7           Mo  tau(   7) = (   0.8801218   0.0601773   2.5845769  )
         8           Mo  tau(   8) = (  -0.1123679   0.3654193   1.4883083  )
         9           Mo  tau(   9) = (  -0.3573535   0.7881419   1.4813027  )
        10           Mo  tau(  10) = (   0.1298842   0.4968857   2.6012905  )
        11           Mo  tau(  11) = (   0.1241161   0.2226115   0.3406821  )
        12           Mo  tau(  12) = (  -0.1212051   0.6463617   0.3209843  )
        13           S   tau(  13) = (   0.1326232   0.7871200   2.3361373  )
        14           S   tau(  14) = (   0.1406964   0.7850317   2.8402256  )
        15           S   tau(  15) = (   0.3765788   0.0761349   0.0754921  )
        16           S   tau(  16) = (   0.3728117   0.0664824   0.5739902  )
        17           S   tau(  17) = (   0.3913498   0.6473606   1.2347926  )
        18           S   tau(  18) = (   0.3904795   0.6403603   1.7269488  )
        19           S   tau(  19) = (   0.3829211   0.3587023   2.3578192  )
        20           S   tau(  20) = (   0.3829236   0.3529792   2.8474496  )
        21           S   tau(  21) = (   0.6162538   0.5108160   0.0870154  )
        22           S   tau(  22) = (   0.6251745   0.5011813   0.5844125  )
        23           S   tau(  23) = (   0.6281835   0.2191312   1.2429996  )
        24           S   tau(  24) = (   0.6339809   0.2017142   1.7242017  )
        25           S   tau(  25) = (   0.8677971   0.0707192   0.0964569  )
        26           S   tau(  26) = (   0.8788252   0.0770349   0.5859270  )
        27           S   tau(  27) = (  -0.1085866   0.3514871   2.3456904  )
        28           S   tau(  28) = (  -0.1135136   0.3580409   2.8254804  )
        29           S   tau(  29) = (  -0.3724396   0.7885415   2.3403813  )
        30           S   tau(  30) = (  -0.3740966   0.7884064   2.8420619  )
        31           S   tau(  31) = (   0.1293417   0.5111511   0.0953588  )
        32           S   tau(  32) = (   0.1184781   0.5020295   0.5857241  )
        33           S   tau(  33) = (   0.1314983   0.2233227   1.2347881  )
        34           S   tau(  34) = (   0.1423312   0.2166719   1.7244395  )
        35           S   tau(  35) = (  -0.1085193   0.6398278   1.2350069  )
        36           S   tau(  36) = (  -0.1211951   0.6359530   1.7256779  )

     number of k points=     5  Marzari-Vanderbilt smearing, width (Ry)=  0.0200
                       cart. coord. in units 2pi/alat
        k(    1) = (   0.0000000   0.0000000   0.0000000), wk =   0.2222222
        k(    2) = (   0.0000000   0.3849001   0.0000000), wk =   0.4444444
        k(    3) = (   0.3333333   0.5773502   0.0000000), wk =   0.4444444
        k(    4) = (  -0.3333333   0.1924501   0.0000000), wk =   0.4444444
        k(    5) = (   0.3333333   0.1924501   0.0000000), wk =   0.4444444

     Dense  grid:   652953 G-vectors     FFT dimensions: (  75,  75, 270)

     Smooth grid:   230589 G-vectors     FFT dimensions: (  54,  54, 192)

     Estimated max dynamical RAM per process >     103.81 MB

     Estimated total dynamical RAM >       4.06 GB

     Initial potential from superposition of free atoms

     starting charge  215.98107, renormalised to  216.00000
     Starting wfcs are  204 randomized atomic wfcs

     total cpu time spent up to now is        4.4 secs

     Self-consistent Calculation

     iteration #  1     ecut=    45.00 Ry     beta= 0.70
     Davidson diagonalization with overlap
     ethr =  1.00E-02,  avg # of iterations =  2.0

     total cpu time spent up to now is       10.7 secs

     total energy              =    -844.15305698 Ry
     Harris-Foulkes estimate   =    -846.76320262 Ry
     estimated scf accuracy    <       6.67569968 Ry

     iteration #  2     ecut=    45.00 Ry     beta= 0.70
     Davidson diagonalization with overlap
     ethr =  3.09E-03,  avg # of iterations =  2.2

     total cpu time spent up to now is       16.3 secs

     total energy              =    -845.38339073 Ry
     Harris-Foulkes estimate   =    -845.55343426 Ry
     estimated scf accuracy    <       0.88815387 Ry

     iteration #  3     ecut=    45.00 Ry     beta= 0.70
     Davidson diagonalization with overlap
     ethr =  4.11E-04,  avg # of iterations =  2.0

     total cpu time spent up to now is       21.2 secs

     total energy              =    -845.38853954 Ry
     Harris-Foulkes estimate   =    -845.46200361 Ry
     estimated scf accuracy    <       0.21057258 Ry

     iteration #  4     ecut=    45.00 Ry     beta= 0.70
     Davidson diagonalization with overlap
     ethr =  9.75E-05,  avg # of iterations =  3.0

     total cpu time spent up to now is       27.9 secs

     total energy              =    -845.44211232 Ry
     Harris-Foulkes estimate   =    -845.46631847 Ry
     estimated scf accuracy    <       0.11314336 Ry

     iteration #  5     ecut=    45.00 Ry     beta= 0.70
     Davidson diagonalization with overlap
     ethr =  5.24E-05,  avg # of iterations =  1.6

     total cpu time spent up to now is       32.6 secs

     total energy              =    -845.44273503 Ry
     Harris-Foulkes estimate   =    -845.44948054 Ry
     estimated scf accuracy    <       0.01854082 Ry

     iteration #  6     ecut=    45.00 Ry     beta= 0.70
     Davidson diagonalization with overlap
     ethr =  8.58E-06,  avg # of iterations =  7.0

     total cpu time spent up to now is       42.9 secs

     total energy              =    -845.44851013 Ry
     Harris-Foulkes estimate   =    -845.45136128 Ry
     estimated scf accuracy    <       0.01463868 Ry

     iteration #  7     ecut=    45.00 Ry     beta= 0.70
     Davidson diagonalization with overlap
     ethr =  6.78E-06,  avg # of iterations =  1.6

     total cpu time spent up to now is       47.6 secs

     total energy              =    -845.44891294 Ry
     Harris-Foulkes estimate   =    -845.44929450 Ry
     estimated scf accuracy    <       0.00297727 Ry

     iteration #  8     ecut=    45.00 Ry     beta= 0.70
     Davidson diagonalization with overlap
     ethr =  1.38E-06,  avg # of iterations =  3.2

     total cpu time spent up to now is       53.3 secs

     total energy              =    -845.44913754 Ry
     Harris-Foulkes estimate   =    -845.44921249 Ry
     estimated scf accuracy    <       0.00056293 Ry

     iteration #  9     ecut=    45.00 Ry     beta= 0.70
     Davidson diagonalization with overlap
     ethr =  2.61E-07,  avg # of iterations =  3.2

     total cpu time spent up to now is       59.0 secs

     total energy              =    -845.44915315 Ry
     Harris-Foulkes estimate   =    -845.44920223 Ry
     estimated scf accuracy    <       0.00020811 Ry

     iteration # 10     ecut=    45.00 Ry     beta= 0.70
     Davidson diagonalization with overlap
     ethr =  9.63E-08,  avg # of iterations =  3.0

     total cpu time spent up to now is       64.8 secs

     total energy              =    -845.44917241 Ry
     Harris-Foulkes estimate   =    -845.44918191 Ry
     estimated scf accuracy    <       0.00002769 Ry

     iteration # 11     ecut=    45.00 Ry     beta= 0.70
     Davidson diagonalization with overlap
     ethr =  1.28E-08,  avg # of iterations =  4.0

     total cpu time spent up to now is       72.1 secs

     total energy              =    -845.44917942 Ry
     Harris-Foulkes estimate   =    -845.44918640 Ry
     estimated scf accuracy    <       0.00004091 Ry

     iteration # 12     ecut=    45.00 Ry     beta= 0.70
     Davidson diagonalization with overlap
     ethr =  1.28E-08,  avg # of iterations =  2.2

     total cpu time spent up to now is       77.1 secs

     total energy              =    -845.44917870 Ry
     Harris-Foulkes estimate   =    -845.44918118 Ry
     estimated scf accuracy    <       0.00001044 Ry

     iteration # 13     ecut=    45.00 Ry     beta= 0.70
     Davidson diagonalization with overlap
     ethr =  4.83E-09,  avg # of iterations =  3.0

     total cpu time spent up to now is       83.3 secs

     total energy              =    -845.44918060 Ry
     Harris-Foulkes estimate   =    -845.44918105 Ry
     estimated scf accuracy    <       0.00000277 Ry

     iteration # 14     ecut=    45.00 Ry     beta= 0.70
     Davidson diagonalization with overlap
     ethr =  1.28E-09,  avg # of iterations =  2.0

     total cpu time spent up to now is       88.3 secs

     End of self-consistent calculation

          k = 0.0000 0.0000 0.0000 ( 28709 PWs)   bands (ev):

    -9.1651  -9.0823  -9.0619  -7.9548  -7.9069  -7.8969  -7.4994  -7.4479
    -7.4392  -7.4268  -7.3661  -7.3600  -7.3153  -7.2670  -7.2361  -7.2276
    -7.1377  -7.1052  -7.0974  -7.0669  -7.0464  -7.0418  -7.0192  -6.9135
    -0.8233  -0.8161  -0.7506  -0.7468  -0.7336  -0.7039  -0.7021  -0.6914
    -0.6432  -0.6332  -0.5407  -0.4967   0.1363   0.1443   0.1672   0.2029
     0.2223   0.2407   0.2447   0.2485   0.3005   0.7566   0.8522   0.8786
     0.8836   0.9000   0.9186   0.9816   0.9974   1.0291   1.6444   1.6750
     1.7367   1.7370   1.8167   1.8207   1.8370   1.8378   1.8925   2.1811
     2.2652   2.3347   2.3528   2.3801   2.4224   2.8252   2.9202   2.9434
     2.9840   2.9957   3.0362   3.0784   3.1018   3.1085   3.1564   3.1746
     3.2696   3.3220   3.3879   3.4112   3.4325   3.4800   3.5124   3.8267
     3.9209   3.9421   3.9676   4.0009   4.0191   4.0222   4.0591   4.1025
     4.2195   4.2398   4.2566   4.2736   4.2909   4.3220   4.3371   4.3532
     4.3853   4.7570   4.9359   5.0500   6.7850   6.7977   6.8105   6.8193
     6.8628   6.9044   6.9103   6.9223   6.9388   7.3275   7.3578   7.3633
     7.3703   7.3878   7.3991   7.4275   7.4297   7.4502   7.5089   7.5370
     7.5661   7.6532

          k = 0.0000 0.3849 0.0000 ( 28834 PWs)   bands (ev):

    -8.8029  -8.7234  -8.6999  -7.9482  -7.8767  -7.8762  -7.7865  -7.7363
    -7.7155  -7.4727  -7.4533  -7.4436  -7.3963  -7.3727  -7.3467  -7.3058
    -7.2685  -7.2603  -7.1008  -7.0846  -7.0663  -7.0497  -7.0270  -6.9692
    -0.3846  -0.3499  -0.3194  -0.2845  -0.2821  -0.2783  -0.2442  -0.2061
    -0.1865  -0.1344  -0.1180  -0.0803   0.0290   0.1093   0.1457   0.1537
     0.1740   0.1839   0.7641   0.8408   0.8613   0.9634   1.0254   1.0373
     1.0675   1.1135   1.1318   1.1758   1.1923   1.2120   1.5160   1.5708
     1.6014   1.6335   1.7280   1.7573   1.7756   1.8098   1.8370   1.9857
     2.0796   2.1000   2.1279   2.1479   2.1637   2.4325   2.5377   2.5816
     2.5902   2.6335   2.6434   2.6540   2.7784   2.8233   2.9144   2.9342
     2.9613   3.0918   3.1031   3.1655   3.1929   3.2050   3.2381   3.2656
     3.3092   3.3579   3.5167   3.6119   3.6300   3.6840   3.7481   3.8515
     3.9110   4.0554   4.0938   4.3123   4.3376   4.4250   4.4714   4.4843
     4.5119   4.5828   4.6499   4.6787   6.8091   6.8165   6.8340   6.8533
     6.8753   6.8953   6.9412   6.9703   7.0121   7.0181   7.0512   7.0981
     7.1458   7.1492   7.2124   7.2877   7.3335   7.3428   7.3504   7.3805
     7.4065   7.4287

          k = 0.3333 0.5774 0.0000 ( 28893 PWs)   bands (ev):

    -8.2691  -8.2097  -8.2024  -8.1987  -8.1094  -8.0969  -8.0785  -8.0017
    -7.9671  -7.5784  -7.4826  -7.4769  -7.4579  -7.4390  -7.4155  -7.3964
    -7.3725  -7.3403  -7.1768  -7.0739  -7.0330  -6.9500  -6.9117  -6.8684
    -0.4219  -0.3386  -0.3148  -0.0692  -0.0119   0.0300   0.0500   0.0922
     0.1237   0.1487   0.1869   0.2609   0.3846   0.4598   0.4732   0.8492
     0.9165   0.9432   0.9786   1.0033   1.0403   1.0795   1.0933   1.1422
     1.1453   1.1593   1.2018   1.2362   1.2658   1.2997   1.3017   1.3432
     1.3551   1.3749   1.3899   1.4082   1.4301   1.4676   1.4718   1.6674
     1.7505   1.7682   1.8149   1.8450   1.8529   1.8748   1.9087   1.9263
     2.0677   2.0852   2.0888   2.7230   2.7247   2.7388   2.7999   2.9214
     2.9513   2.9607   3.0025   3.0266   3.0301   3.0653   3.1333   3.6875
     3.7299   3.7648   3.7975   3.8118   3.8350   3.8550   3.8852   3.9268
     4.0686   4.0989   4.1017   4.1167   4.1363   4.1673   4.1769   4.1952
     4.1995   4.8585   4.8920   4.9104   6.3586   6.4099   6.4499   6.5597
     6.5968   6.6539   6.6736   6.7149   6.7437   6.7954   6.8143   6.8680
     7.0943   7.1084   7.1474   7.1551   7.1827   7.2158   7.2335   7.2692
     7.2908   7.3917

          k =-0.3333 0.1925 0.0000 ( 28834 PWs)   bands (ev):

    -8.8031  -8.7242  -8.7056  -7.9522  -7.8872  -7.8451  -7.7822  -7.7153
    -7.7103  -7.5228  -7.4656  -7.4301  -7.4002  -7.3477  -7.3409  -7.3374
    -7.2753  -7.1901  -7.1477  -7.1209  -7.0946  -7.0571  -7.0156  -6.9125
    -0.4020  -0.3515  -0.3234  -0.3054  -0.2893  -0.2719  -0.2491  -0.2033
    -0.1666  -0.1575  -0.0995  -0.0500   0.0481   0.1344   0.1385   0.1414
     0.2096   0.2167   0.7563   0.8108   0.8315   0.9384   1.0396   1.0641
     1.0810   1.1062   1.1130   1.1311   1.1781   1.2752   1.4907   1.5933
     1.6272   1.6357   1.7139   1.7271   1.7473   1.8024   1.9010   1.9642
     2.0140   2.0584   2.1117   2.1630   2.1975   2.4258   2.5434   2.5543
     2.5939   2.6585   2.6929   2.7242   2.7501   2.7682   2.8250   2.9125
     3.0533   3.1158   3.1287   3.1549   3.1995   3.2096   3.2617   3.2780
     3.3150   3.3961   3.5094   3.6044   3.6485   3.6835   3.7787   3.8915
     3.9349   3.9581   4.0163   4.3008   4.3332   4.3672   4.4867   4.5281
     4.5434   4.6123   4.6205   4.6667   6.7726   6.8033   6.8303   6.8490
     6.8793   6.8940   6.9574   6.9688   6.9738   7.0216   7.0395   7.0617
     7.1214   7.1431   7.1772   7.2469   7.2583   7.2759   7.3662   7.3777
     7.3970   7.4220

          k = 0.3333 0.1925 0.0000 ( 28834 PWs)   bands (ev):

    -8.8039  -8.7204  -8.7052  -7.9656  -7.9018  -7.8888  -7.7792  -7.7198
    -7.6961  -7.4560  -7.4315  -7.4247  -7.3732  -7.3631  -7.3465  -7.3377
    -7.2804  -7.2344  -7.1737  -7.0709  -7.0575  -7.0407  -7.0274  -6.9912
    -0.4129  -0.3390  -0.3203  -0.2992  -0.2899  -0.2626  -0.2555  -0.2092
    -0.1662  -0.1260  -0.1092  -0.0855   0.0722   0.1238   0.1425   0.1731
     0.2058   0.2159   0.7634   0.8366   0.8501   0.9407   1.0129   1.0412
     1.0850   1.1128   1.1451   1.1716   1.1831   1.2072   1.4914   1.5578
     1.5920   1.6367   1.7096   1.7496   1.7653   1.7937   1.8259   2.0074
     2.0287   2.1095   2.1218   2.1353   2.2103   2.4943   2.5088   2.5647
     2.6093   2.6331   2.6539   2.6584   2.8008   2.8049   2.8369   2.8972
     2.9477   3.0827   3.1216   3.1955   3.2003   3.2039   3.2322   3.2651
     3.3234   3.3804   3.5483   3.6130   3.6329   3.6771   3.7864   3.8533
     3.9661   4.0256   4.0760   4.2520   4.3866   4.4051   4.4759   4.4866
     4.4990   4.5912   4.6510   4.6948   6.7705   6.8325   6.8350   6.8595
     6.8904   6.8995   6.9246   6.9860   6.9938   7.0142   7.0358   7.0673
     7.1093   7.1370   7.1933   7.2283   7.2739   7.2916   7.3159   7.3609
     7.3974   7.4402

     the Fermi energy is     5.0106 ev

!    total energy              =    -845.44918007 Ry
     Harris-Foulkes estimate   =    -845.44918082 Ry
     estimated scf accuracy    <       0.00000079 Ry

     The total energy is the sum of the following terms:

     one-electron contribution =    -485.89480459 Ry
     hartree contribution      =     354.96145324 Ry
     xc contribution           =    -334.15866564 Ry
     ewald contribution        =    -380.38038712 Ry
     smearing contrib. (-TS)   =       0.02322405 Ry

     convergence has been achieved in  14 iterations

     Forces acting on atoms (cartesian axes, Ry/au):

     atom    1 type  1   force =     0.02269540   -0.01943671    0.07360395
     atom    2 type  1   force =    -0.02646030   -0.01486327    0.07899483
     atom    3 type  1   force =     0.01062337   -0.03844706    0.07337527
     atom    4 type  1   force =     0.01415994    0.02413886    0.08220154
     atom    5 type  1   force =    -0.01005291   -0.02681707   -0.05111755
     atom    6 type  1   force =    -0.06226667    0.01095757   -0.01962468
     atom    7 type  1   force =     0.01241164    0.02574301    0.02284307
     atom    8 type  1   force =    -0.02256779   -0.08042391   -0.03579800
     atom    9 type  1   force =    -0.03158228    0.02462855   -0.01029970
     atom   10 type  1   force =     0.05159747    0.02984545   -0.06005445
     atom   11 type  1   force =     0.01468552   -0.03378977   -0.04441428
     atom   12 type  1   force =    -0.04508800    0.03263050    0.06783109
     atom   13 type  2   force =    -0.00261738   -0.01888033    0.01714784
     atom   14 type  2   force =    -0.02584885    0.01477588   -0.01399924
     atom   15 type  2   force =    -0.00083400    0.00411650    0.04347388
     atom   16 type  2   force =     0.01421757   -0.00060566   -0.00237027
     atom   17 type  2   force =    -0.00083197    0.00821927   -0.01850019
     atom   18 type  2   force =    -0.01349755    0.01104842   -0.02954463
     atom   19 type  2   force =     0.00675993    0.01196871   -0.02295300
     atom   20 type  2   force =     0.00570024   -0.01008490   -0.02524173
     atom   21 type  2   force =     0.01735881   -0.01870125    0.00068752
     atom   22 type  2   force =     0.00578789    0.02231962   -0.02857093
     atom   23 type  2   force =     0.04124779   -0.00921680   -0.04702185
     atom   24 type  2   force =    -0.00538361    0.02055537   -0.01028547
     atom   25 type  2   force =     0.03146198    0.02753542   -0.03129759
     atom   26 type  2   force =    -0.00414331   -0.00948015    0.00078331
     atom   27 type  2   force =    -0.02707029    0.01580457    0.00794056
     atom   28 type  2   force =    -0.02714327   -0.03748717    0.05937209
     atom   29 type  2   force =     0.02020353   -0.01149588    0.00902295
     atom   30 type  2   force =     0.02309863    0.02034116   -0.02041021
     atom   31 type  2   force =     0.00459956   -0.02473329   -0.04400587
     atom   32 type  2   force =     0.01245172    0.02842753   -0.01696937
     atom   33 type  2   force =    -0.00829211   -0.03124342   -0.00885029
     atom   34 type  2   force =    -0.00680349   -0.01150222    0.00185577
     atom   35 type  2   force =    -0.01978546    0.01381178   -0.02323491
     atom   36 type  2   force =     0.03120826    0.05034064    0.02543051

     Total force =     0.317363     Total SCF correction =     0.002465
 
     init_run     :      3.45s CPU      3.60s WALL (       1 calls)
     electrons    :     82.03s CPU     83.91s WALL (       1 calls)
     forces       :      2.08s CPU      2.21s WALL (       1 calls)

     Called by init_run:
     wfcinit      :      2.16s CPU      2.22s WALL (       1 calls)
     potinit      :      0.31s CPU      0.32s WALL (       1 calls)
     hinit0       :      0.36s CPU      0.37s WALL (       1 calls)

     Called by electrons:
     c_bands      :     65.08s CPU     65.92s WALL (      14 calls)
     sum_band     :     12.25s CPU     12.98s WALL (      14 calls)
     v_of_rho     :      0.98s CPU      1.02s WALL (      15 calls)
     newd         :      2.81s CPU      3.11s WALL (      15 calls)
     mix_rho      :      1.01s CPU      1.03s WALL (      14 calls)

     Called by c_bands:
     init_us_2    :      1.62s CPU      1.64s WALL (     150 calls)
     cegterg      :     60.38s CPU     61.20s WALL (      70 calls)

     Called by sum_band:
     sum_band:bec :      0.10s CPU      0.11s WALL (      70 calls)
     addusdens    :      4.36s CPU      4.90s WALL (      14 calls)

     Called by *egterg:
     h_psi        :     31.98s CPU     32.60s WALL (     275 calls)
     s_psi        :      6.45s CPU      6.46s WALL (     275 calls)
     g_psi        :      0.17s CPU      0.17s WALL (     200 calls)
     cdiaghg      :     11.87s CPU     12.06s WALL (     270 calls)

     Called by h_psi:
     h_psi:pot    :     31.62s CPU     32.22s WALL (     275 calls)
     h_psi:calbec :      7.16s CPU      7.36s WALL (     275 calls)
     vloc_psi     :     17.97s CPU     18.37s WALL (     275 calls)
     add_vuspsi   :      6.48s CPU      6.49s WALL (     275 calls)

     General routines
     calbec       :     10.77s CPU     11.09s WALL (     365 calls)
     fft          :      0.84s CPU      0.88s WALL (     204 calls)
     ffts         :      0.43s CPU      0.43s WALL (     492 calls)
     fftw         :     19.86s CPU     20.29s WALL (   55468 calls)
     interpolate  :      0.08s CPU      0.08s WALL (      15 calls)
 
     Parallel routines
     fft_scatt_xy :      2.38s CPU      2.43s WALL (   56164 calls)
     fft_scatt_yz :      8.98s CPU      9.22s WALL (   56164 calls)
 
     PWSCF        :   1m28.36s CPU   1m30.61s WALL

 
   This run was terminated on:   0:17:17  25Dec2021            

=------------------------------------------------------------------------------=
   JOB DONE.
=------------------------------------------------------------------------------=
