
     Program PWSCF v.6.4 starts on 14Oct2021 at 10: 4:33 

     This program is part of the open-source Quantum ESPRESSO suite
     for quantum simulation of materials; please cite
         "P. Giannozzi et al., J. Phys.:Condens. Matter 21 395502 (2009);
         "P. Giannozzi et al., J. Phys.:Condens. Matter 29 465901 (2017);
          URL http://www.quantum-espresso.org", 
     in publications or presentations arising from this work. More details at
     http://www.quantum-espresso.org/quote

     Parallel version (MPI), running on    40 processors

     MPI processes distributed on     1 nodes
     R & G space division:  proc/nbgrp/npool/nimage =      40
     Waiting for input...
     Reading input from standard input
Warning: card    &IONS ignored
Warning: card      ION_DYNAMICS = 'BFGS' ignored
Warning: card   / ignored
Warning: card    &CELL ignored
Warning: card      CELL_DYNAMICS = 'BFGS', ignored
Warning: card    / ignored

     Current dimensions of program PWSCF are:
     Max number of different atomic species (ntypx) = 10
     Max number of k-points (npk) =  40000
     Max angular momentum in pseudopotentials (lmaxx) =  3

     Subspace diagonalization in iterative solution of the eigenvalue problem:
     one sub-group per band group will be used
     scalapack distributed-memory algorithm (size of sub-group:  4*  4 procs)

 
     Parallelization info
     --------------------
     sticks:   dense  smooth     PW     G-vecs:    dense   smooth      PW
     Min          49      24      6                 5732     2023     293
     Max          50      25      7                 5740     2035     316
     Sum        1969     981    273               229451    81133   12319
 


     bravais-lattice index     =            0
     lattice parameter (alat)  =       6.0312  a.u.
     unit-cell volume          =    1988.9862 (a.u.)^3
     number of atoms/cell      =           12
     number of atomic types    =            2
     number of electrons       =        72.00
     number of Kohn-Sham states=           43
     kinetic-energy cutoff     =      45.0000  Ry
     charge density cutoff     =     360.0000  Ry
     convergence threshold     =      1.0E-06
     mixing beta               =       0.7000
     number of iterations used =            8  local-TF  mixing
     Exchange-correlation      = SLA PW GGX GGC ( 1  4  2  2 0 0)

     celldm(1)=   6.031211  celldm(2)=   0.000000  celldm(3)=   0.000000
     celldm(4)=   0.000000  celldm(5)=   0.000000  celldm(6)=   0.000000

     crystal axes: (cart. coord. in units of alat)
               a(1) = (   1.000000   0.000000   0.000000 )  
               a(2) = (  -0.006033   1.887065   0.000000 )  
               a(3) = (   0.347217   0.520871   4.804315 )  

     reciprocal axes: (cart. coord. in units 2 pi/alat)
               b(1) = (  1.000000  0.003197 -0.072619 )  
               b(2) = (  0.000000  0.529924 -0.057453 )  
               b(3) = (  0.000000  0.000000  0.208146 )  


     PseudoPot. # 1 for Mo read from file:
     ~/pseudo/Mo.pw91-n-van.UPF
     MD5 check sum: Not computed, couldn't open file
     Pseudo is Ultrasoft + core correction, Zval =  6.0
     Generated by new atomic code, or converted to UPF format
     Using radial grid of  965 points,  3 beta functions with: 
                l(1) =   1
                l(2) =   2
                l(3) =   2
     Q(r) pseudized with  8 coefficients,  rinner =    1.000   1.000   1.000
                                                       1.200   1.200

     PseudoPot. # 2 for S  read from file:
     ~/pseudo/S.pw91-van_ak.UPF
     MD5 check sum: Not computed, couldn't open file
     Pseudo is Ultrasoft, Zval =  6.0
     Generated by new atomic code, or converted to UPF format
     Using radial grid of  811 points,  6 beta functions with: 
                l(1) =   0
                l(2) =   0
                l(3) =   1
                l(4) =   1
                l(5) =   2
                l(6) =   2
     Q(r) pseudized with  8 coefficients,  rinner =    1.100   1.100   1.100
                                                       1.100   1.100

     atomic species   valence    mass     pseudopotential
        Mo             6.00    95.50000     Mo( 1.00)
        S              6.00    32.06500     S ( 1.00)

     No symmetry found



   Cartesian axes

     site n.     atom                  positions (alat units)
         1           Mo  tau(   1) = (   0.0038016   1.2330454   1.7592912  )
         2           Mo  tau(   2) = (   0.5036730   1.9456498   1.7550456  )
         3           Mo  tau(   3) = (   0.8885374   0.5938307   4.4037778  )
         4           Mo  tau(   4) = (   1.4083884   1.7741997   4.4614719  )
         5           S   tau(   5) = (   1.3864421   0.3629240   3.8919351  )
         6           S   tau(   6) = (   0.5111153   1.4288073   2.2752986  )
         7           S   tau(   7) = (   0.0182834   0.5170730   2.1545232  )
         8           S   tau(   8) = (   0.0061569   1.7679835   1.2392202  )
         9           S   tau(   9) = (   1.3945431   1.0524389   4.8206894  )
        10           S   tau(  10) = (   0.5050045   0.7797134   1.3426654  )
        11           S   tau(  11) = (   0.5575363   1.4643773   0.1700947  )
        12           S   tau(  12) = (   0.9057887   1.3158711   4.0648204  )

     number of k points=     8  Marzari-Vanderbilt smearing, width (Ry)=  0.0200
                       cart. coord. in units 2pi/alat
        k(    1) = (   0.0000000   0.0000000   0.0000000), wk =   0.1333333
        k(    2) = (   0.0000000   0.1766412  -0.0191510), wk =   0.2666667
        k(    3) = (   0.2000000   0.0006395  -0.0145237), wk =   0.2666667
        k(    4) = (   0.2000000   0.1772806  -0.0336747), wk =   0.2666667
        k(    5) = (   0.2000000  -0.1760017   0.0046272), wk =   0.2666667
        k(    6) = (   0.4000000   0.0012789  -0.0290475), wk =   0.2666667
        k(    7) = (   0.4000000   0.1779201  -0.0481984), wk =   0.2666667
        k(    8) = (   0.4000000  -0.1753623  -0.0098965), wk =   0.2666667

     Dense  grid:   229451 G-vectors     FFT dimensions: (  40,  72, 180)

     Smooth grid:    81133 G-vectors     FFT dimensions: (  25,  50, 125)

     Estimated max dynamical RAM per process >      28.05 MB

     Estimated total dynamical RAM >       1.10 GB

     Initial potential from superposition of free atoms

     starting charge   71.99369, renormalised to   72.00000
     Starting wfcs are   68 randomized atomic wfcs

     total cpu time spent up to now is        1.5 secs

     Self-consistent Calculation

     iteration #  1     ecut=    45.00 Ry     beta= 0.70
     Davidson diagonalization with overlap
     ethr =  1.00E-02,  avg # of iterations =  2.1

     total cpu time spent up to now is        2.6 secs

     total energy              =    -281.13422437 Ry
     Harris-Foulkes estimate   =    -282.07142800 Ry
     estimated scf accuracy    <       2.45619951 Ry

     iteration #  2     ecut=    45.00 Ry     beta= 0.70
     Davidson diagonalization with overlap
     ethr =  3.41E-03,  avg # of iterations =  2.1

     total cpu time spent up to now is        3.6 secs

     total energy              =    -281.58117575 Ry
     Harris-Foulkes estimate   =    -281.70912068 Ry
     estimated scf accuracy    <       0.66705891 Ry

     iteration #  3     ecut=    45.00 Ry     beta= 0.70
     Davidson diagonalization with overlap
     ethr =  9.26E-04,  avg # of iterations =  1.5

     total cpu time spent up to now is        4.4 secs

     total energy              =    -281.61755988 Ry
     Harris-Foulkes estimate   =    -281.63669320 Ry
     estimated scf accuracy    <       0.07925567 Ry

     iteration #  4     ecut=    45.00 Ry     beta= 0.70
     Davidson diagonalization with overlap
     ethr =  1.10E-04,  avg # of iterations =  3.1

     total cpu time spent up to now is        5.6 secs

     total energy              =    -281.63292226 Ry
     Harris-Foulkes estimate   =    -281.64082643 Ry
     estimated scf accuracy    <       0.02371741 Ry

     iteration #  5     ecut=    45.00 Ry     beta= 0.70
     Davidson diagonalization with overlap
     ethr =  3.29E-05,  avg # of iterations =  2.2

     total cpu time spent up to now is        6.6 secs

     total energy              =    -281.63587046 Ry
     Harris-Foulkes estimate   =    -281.63614163 Ry
     estimated scf accuracy    <       0.00130764 Ry

     iteration #  6     ecut=    45.00 Ry     beta= 0.70
     Davidson diagonalization with overlap
     ethr =  1.82E-06,  avg # of iterations =  9.5

     total cpu time spent up to now is        8.9 secs

     total energy              =    -281.63612411 Ry
     Harris-Foulkes estimate   =    -281.63632360 Ry
     estimated scf accuracy    <       0.00049635 Ry

     iteration #  7     ecut=    45.00 Ry     beta= 0.70
     Davidson diagonalization with overlap
     ethr =  6.89E-07,  avg # of iterations =  2.0

     total cpu time spent up to now is        9.8 secs

     total energy              =    -281.63613798 Ry
     Harris-Foulkes estimate   =    -281.63618385 Ry
     estimated scf accuracy    <       0.00010071 Ry

     iteration #  8     ecut=    45.00 Ry     beta= 0.70
     Davidson diagonalization with overlap
     ethr =  1.40E-07,  avg # of iterations =  2.9

     total cpu time spent up to now is       10.8 secs

     total energy              =    -281.63614422 Ry
     Harris-Foulkes estimate   =    -281.63615827 Ry
     estimated scf accuracy    <       0.00005552 Ry

     iteration #  9     ecut=    45.00 Ry     beta= 0.70
     Davidson diagonalization with overlap
     ethr =  7.71E-08,  avg # of iterations =  2.2

     total cpu time spent up to now is       11.8 secs

     total energy              =    -281.63614463 Ry
     Harris-Foulkes estimate   =    -281.63614873 Ry
     estimated scf accuracy    <       0.00001056 Ry

     iteration # 10     ecut=    45.00 Ry     beta= 0.70
     Davidson diagonalization with overlap
     ethr =  1.47E-08,  avg # of iterations =  3.4

     total cpu time spent up to now is       13.0 secs

     total energy              =    -281.63614670 Ry
     Harris-Foulkes estimate   =    -281.63614856 Ry
     estimated scf accuracy    <       0.00000774 Ry

     iteration # 11     ecut=    45.00 Ry     beta= 0.70
     Davidson diagonalization with overlap
     ethr =  1.07E-08,  avg # of iterations =  2.5

     total cpu time spent up to now is       13.9 secs

     End of self-consistent calculation

          k = 0.0000 0.0000 0.0000 ( 10179 PWs)   bands (ev):

    -9.5455  -9.4996  -8.6839  -8.5777  -8.0728  -7.8974  -7.5953  -7.5476
    -1.3989  -1.3177  -0.8543  -0.6086  -0.0260   0.0136   0.1618   0.1932
     1.0762   1.1204   1.1301   1.2465   1.4492   1.5311   1.8541   2.1331
     2.5603   2.5990   2.8116   2.9289   3.4734   3.5090   3.9857   4.2644
     4.3533   4.4353   4.4531   4.5576   4.7600   4.9296   4.9392   5.1942
     6.2053   6.3339   6.6745

          k = 0.0000 0.1766-0.0192 ( 10178 PWs)   bands (ev):

    -9.2563  -9.2187  -8.7541  -8.6551  -8.4098  -8.2186  -7.5828  -7.5079
    -1.1425  -0.9957  -0.8381  -0.7365  -0.1770  -0.0381   0.5861   0.7011
     0.9774   1.1437   1.1687   1.2349   1.2535   1.4441   2.0774   2.2059
     2.3237   2.5468   3.0237   3.2175   3.2624   3.2893   3.7048   3.8338
     3.9328   4.0560   4.2681   4.3354   4.6777   4.7281   4.8030   4.8576
     6.2093   6.3417   6.9867

          k = 0.2000 0.0006-0.0145 ( 10157 PWs)   bands (ev):

    -9.1239  -9.0875  -8.5035  -8.3968  -7.9670  -7.8048  -7.3951  -7.3693
    -0.9175  -0.8494  -0.6104  -0.4841  -0.1872  -0.0553   0.0113   0.1214
     0.8298   0.9909   1.2479   1.2779   1.3279   1.3451   1.5639   1.6100
     1.9167   2.0354   2.5043   2.5755   2.6718   2.6898   3.1221   3.2558
     3.9353   4.1174   4.1953   4.3835   4.7560   4.8601   5.5988   5.6788
     6.8072   6.8356   6.9525

          k = 0.2000 0.1773-0.0337 ( 10153 PWs)   bands (ev):

    -8.8848  -8.8509  -8.5186  -8.4028  -8.2718  -8.0855  -7.4110  -7.3756
    -0.6341  -0.4961  -0.4441  -0.3701  -0.1959   0.0302   0.2057   0.2596
     0.5275   0.5770   0.8953   0.9828   1.0890   1.1737   1.6384   1.7025
     2.1294   2.1480   2.4663   2.5653   2.7162   2.8489   3.3920   3.5025
     3.6385   3.7693   4.1497   4.2331   4.9470   4.9812   5.4031   5.5046
     6.5329   6.6250   6.7421

          k = 0.2000-0.1760 0.0046 ( 10147 PWs)   bands (ev):

    -8.8851  -8.8507  -8.5197  -8.4048  -8.2711  -8.0852  -7.4091  -7.3792
    -0.6279  -0.5015  -0.4502  -0.3812  -0.2023  -0.0089   0.2005   0.2732
     0.4976   0.5904   0.9880   1.0297   1.0802   1.1600   1.6460   1.7082
     2.0755   2.1241   2.4854   2.5120   2.7028   2.8757   3.4815   3.5609
     3.6508   3.7445   4.1386   4.2638   4.9236   4.9770   5.4044   5.4398
     6.5248   6.6155   6.8014

          k = 0.4000 0.0013-0.0290 ( 10113 PWs)   bands (ev):

    -8.2954  -8.2099  -8.1896  -8.0948  -7.7325  -7.5530  -7.2226  -7.1590
    -0.8085  -0.7679  -0.7286  -0.6025  -0.5639  -0.4639   0.2048   0.2339
     0.3454   0.3846   0.6255   0.7532   0.9156   0.9663   1.4281   1.5311
     1.7774   1.8157   1.9229   2.0420   2.3831   2.4548   2.6140   2.6299
     3.2518   3.3600   3.7606   3.8523   5.9026   5.9342   6.2138   6.2396
     6.7025   6.7364   6.8594

          k = 0.4000 0.1779-0.0482 ( 10105 PWs)   bands (ev):

    -8.2940  -8.2096  -8.1899  -8.1234  -7.7123  -7.5672  -7.2166  -7.1458
    -1.2503  -1.2374  -0.8381  -0.8108  -0.3597  -0.3308   0.2583   0.3647
     0.5711   0.5751   0.7739   0.8124   0.9692   1.0582   1.3439   1.4812
     1.7196   1.7752   2.0116   2.0843   2.3597   2.4229   2.9924   3.0935
     3.3386   3.3881   3.6938   3.8261   5.8226   5.8519   6.1550   6.2445
     6.8125   6.9388   7.0341

          k = 0.4000-0.1754-0.0099 ( 10115 PWs)   bands (ev):

    -8.2917  -8.2134  -8.1946  -8.1122  -7.7201  -7.5738  -7.2163  -7.1394
    -1.2504  -1.2176  -0.8348  -0.8207  -0.3499  -0.3153   0.2562   0.3581
     0.5036   0.5627   0.7691   0.8099   0.9431   0.9723   1.3990   1.5035
     1.7577   1.8848   1.9913   2.0597   2.3600   2.4389   3.0124   3.0931
     3.3166   3.4357   3.6861   3.8305   5.8267   5.8582   6.1627   6.1699
     6.8111   6.9143   7.0309

     the Fermi energy is     4.5379 ev

!    total energy              =    -281.63614672 Ry
     Harris-Foulkes estimate   =    -281.63614742 Ry
     estimated scf accuracy    <       0.00000076 Ry

     The total energy is the sum of the following terms:

     one-electron contribution =    -170.68194991 Ry
     hartree contribution      =     121.16518541 Ry
     xc contribution           =    -111.34231519 Ry
     ewald contribution        =    -120.78164647 Ry
     smearing contrib. (-TS)   =       0.00457945 Ry

     convergence has been achieved in  11 iterations

     Forces acting on atoms (cartesian axes, Ry/au):

     atom    1 type  1   force =     0.00900723   -0.06829824    0.01343979
     atom    2 type  1   force =     0.00273096    0.07972898   -0.03479937
     atom    3 type  1   force =     0.00783669    0.05687039    0.00914514
     atom    4 type  1   force =    -0.01139557   -0.06784041    0.01536346
     atom    5 type  2   force =     0.00578849    0.02168925   -0.03960054
     atom    6 type  2   force =    -0.00697872   -0.02421158    0.06724425
     atom    7 type  2   force =    -0.00533789   -0.00203543    0.01602482
     atom    8 type  2   force =    -0.00212980    0.00724704   -0.05890261
     atom    9 type  2   force =     0.00475574   -0.01606267    0.01520179
     atom   10 type  2   force =     0.00292282    0.00879149   -0.00105817
     atom   11 type  2   force =     0.00051966   -0.00285415    0.03137621
     atom   12 type  2   force =    -0.00771960    0.00697533   -0.03343478

     Total force =     0.186310     Total SCF correction =     0.002279
 
     init_run     :      0.84s CPU      0.89s WALL (       1 calls)
     electrons    :     12.19s CPU     12.46s WALL (       1 calls)
     forces       :      0.42s CPU      0.43s WALL (       1 calls)

     Called by init_run:
     wfcinit      :      0.37s CPU      0.38s WALL (       1 calls)
     potinit      :      0.14s CPU      0.15s WALL (       1 calls)
     hinit0       :      0.20s CPU      0.21s WALL (       1 calls)

     Called by electrons:
     c_bands      :      9.17s CPU      9.35s WALL (      11 calls)
     sum_band     :      1.83s CPU      1.89s WALL (      11 calls)
     v_of_rho     :      0.18s CPU      0.19s WALL (      12 calls)
     newd         :      0.83s CPU      0.86s WALL (      12 calls)
     mix_rho      :      0.20s CPU      0.21s WALL (      11 calls)

     Called by c_bands:
     init_us_2    :      0.11s CPU      0.12s WALL (     192 calls)
     cegterg      :      8.63s CPU      8.81s WALL (      88 calls)

     Called by sum_band:
     sum_band:bec :      0.01s CPU      0.01s WALL (      88 calls)
     addusdens    :      0.93s CPU      0.94s WALL (      11 calls)

     Called by *egterg:
     h_psi        :      3.96s CPU      4.07s WALL (     365 calls)
     s_psi        :      0.33s CPU      0.33s WALL (     365 calls)
     g_psi        :      0.01s CPU      0.01s WALL (     269 calls)
     cdiaghg      :      3.46s CPU      3.51s WALL (     357 calls)

     Called by h_psi:
     h_psi:pot    :      3.94s CPU      4.05s WALL (     365 calls)
     h_psi:calbec :      0.52s CPU      0.53s WALL (     365 calls)
     vloc_psi     :      3.07s CPU      3.17s WALL (     365 calls)
     add_vuspsi   :      0.35s CPU      0.35s WALL (     365 calls)

     General routines
     calbec       :      0.75s CPU      0.76s WALL (     485 calls)
     fft          :      0.19s CPU      0.20s WALL (     165 calls)
     ffts         :      0.11s CPU      0.11s WALL (     371 calls)
     fftw         :      3.47s CPU      3.58s WALL (   23964 calls)
     interpolate  :      0.02s CPU      0.02s WALL (      12 calls)
 
     Parallel routines
     fft_scatt_xy :      0.25s CPU      0.26s WALL (   24500 calls)
     fft_scatt_yz :      2.43s CPU      2.50s WALL (   24500 calls)
 
     PWSCF        :     14.04s CPU     14.50s WALL

 
   This run was terminated on:  10: 4:47  14Oct2021            

=------------------------------------------------------------------------------=
   JOB DONE.
=------------------------------------------------------------------------------=

     Program PWSCF v.6.4 starts on 14Oct2021 at 10:48: 7 

     This program is part of the open-source Quantum ESPRESSO suite
     for quantum simulation of materials; please cite
         "P. Giannozzi et al., J. Phys.:Condens. Matter 21 395502 (2009);
         "P. Giannozzi et al., J. Phys.:Condens. Matter 29 465901 (2017);
          URL http://www.quantum-espresso.org", 
     in publications or presentations arising from this work. More details at
     http://www.quantum-espresso.org/quote

     Parallel version (MPI), running on    40 processors

     MPI processes distributed on     1 nodes
     R & G space division:  proc/nbgrp/npool/nimage =      40
     Waiting for input...
     Reading input from standard input
Warning: card    &IONS ignored
Warning: card      ION_DYNAMICS = 'BFGS' ignored
Warning: card   / ignored
Warning: card    &CELL ignored
Warning: card      CELL_DYNAMICS = 'BFGS', ignored
Warning: card    / ignored

     Current dimensions of program PWSCF are:
     Max number of different atomic species (ntypx) = 10
     Max number of k-points (npk) =  40000
     Max angular momentum in pseudopotentials (lmaxx) =  3

     Subspace diagonalization in iterative solution of the eigenvalue problem:
     one sub-group per band group will be used
     scalapack distributed-memory algorithm (size of sub-group:  4*  4 procs)

 
     Parallelization info
     --------------------
     sticks:   dense  smooth     PW     G-vecs:    dense   smooth      PW
     Min          49      24      6                 5732     2023     293
     Max          50      25      7                 5740     2035     316
     Sum        1969     981    273               229451    81133   12319
 


     bravais-lattice index     =            0
     lattice parameter (alat)  =       6.0312  a.u.
     unit-cell volume          =    1988.9862 (a.u.)^3
     number of atoms/cell      =           12
     number of atomic types    =            2
     number of electrons       =        72.00
     number of Kohn-Sham states=           43
     kinetic-energy cutoff     =      45.0000  Ry
     charge density cutoff     =     360.0000  Ry
     convergence threshold     =      1.0E-06
     mixing beta               =       0.7000
     number of iterations used =            8  local-TF  mixing
     Exchange-correlation      = SLA PW GGX GGC ( 1  4  2  2 0 0)

     celldm(1)=   6.031211  celldm(2)=   0.000000  celldm(3)=   0.000000
     celldm(4)=   0.000000  celldm(5)=   0.000000  celldm(6)=   0.000000

     crystal axes: (cart. coord. in units of alat)
               a(1) = (   1.000000   0.000000   0.000000 )  
               a(2) = (  -0.006033   1.887065   0.000000 )  
               a(3) = (   0.347217   0.520871   4.804315 )  

     reciprocal axes: (cart. coord. in units 2 pi/alat)
               b(1) = (  1.000000  0.003197 -0.072619 )  
               b(2) = (  0.000000  0.529924 -0.057453 )  
               b(3) = (  0.000000  0.000000  0.208146 )  


     PseudoPot. # 1 for Mo read from file:
     ~/pseudo/Mo.pw91-n-van.UPF
     MD5 check sum: Not computed, couldn't open file
     Pseudo is Ultrasoft + core correction, Zval =  6.0
     Generated by new atomic code, or converted to UPF format
     Using radial grid of  965 points,  3 beta functions with: 
                l(1) =   1
                l(2) =   2
                l(3) =   2
     Q(r) pseudized with  8 coefficients,  rinner =    1.000   1.000   1.000
                                                       1.200   1.200

     PseudoPot. # 2 for S  read from file:
     ~/pseudo/S.pw91-van_ak.UPF
     MD5 check sum: Not computed, couldn't open file
     Pseudo is Ultrasoft, Zval =  6.0
     Generated by new atomic code, or converted to UPF format
     Using radial grid of  811 points,  6 beta functions with: 
                l(1) =   0
                l(2) =   0
                l(3) =   1
                l(4) =   1
                l(5) =   2
                l(6) =   2
     Q(r) pseudized with  8 coefficients,  rinner =    1.100   1.100   1.100
                                                       1.100   1.100

     atomic species   valence    mass     pseudopotential
        Mo             6.00    95.50000     Mo( 1.00)
        S              6.00    32.06500     S ( 1.00)

     No symmetry found



   Cartesian axes

     site n.     atom                  positions (alat units)
         1           Mo  tau(   1) = (   0.0038016   1.2330454   1.7592912  )
         2           Mo  tau(   2) = (   0.5036730   1.9456498   1.7550456  )
         3           Mo  tau(   3) = (   0.8885374   0.5938307   4.4037778  )
         4           Mo  tau(   4) = (   1.4083884   1.7741997   4.4614719  )
         5           S   tau(   5) = (   1.3864421   0.3629240   3.8919351  )
         6           S   tau(   6) = (   0.5111153   1.4288073   2.2752986  )
         7           S   tau(   7) = (   0.0182834   0.5170730   2.1545232  )
         8           S   tau(   8) = (   0.0061569   1.7679835   1.2392202  )
         9           S   tau(   9) = (   1.3945431   1.0524389   4.8206894  )
        10           S   tau(  10) = (   0.5050045   0.7797134   1.3426654  )
        11           S   tau(  11) = (   0.5575363   1.4643773   0.1700947  )
        12           S   tau(  12) = (   0.9057887   1.3158711   4.0648204  )

     number of k points=     8  Marzari-Vanderbilt smearing, width (Ry)=  0.0200
                       cart. coord. in units 2pi/alat
        k(    1) = (   0.0000000   0.0000000   0.0000000), wk =   0.1333333
        k(    2) = (   0.0000000   0.1766412  -0.0191510), wk =   0.2666667
        k(    3) = (   0.2000000   0.0006395  -0.0145237), wk =   0.2666667
        k(    4) = (   0.2000000   0.1772806  -0.0336747), wk =   0.2666667
        k(    5) = (   0.2000000  -0.1760017   0.0046272), wk =   0.2666667
        k(    6) = (   0.4000000   0.0012789  -0.0290475), wk =   0.2666667
        k(    7) = (   0.4000000   0.1779201  -0.0481984), wk =   0.2666667
        k(    8) = (   0.4000000  -0.1753623  -0.0098965), wk =   0.2666667

     Dense  grid:   229451 G-vectors     FFT dimensions: (  40,  72, 180)

     Smooth grid:    81133 G-vectors     FFT dimensions: (  25,  50, 125)

     Estimated max dynamical RAM per process >      28.05 MB

     Estimated total dynamical RAM >       1.10 GB

     Initial potential from superposition of free atoms

     starting charge   71.99369, renormalised to   72.00000
     Starting wfcs are   68 randomized atomic wfcs

     total cpu time spent up to now is        1.7 secs

     Self-consistent Calculation

     iteration #  1     ecut=    45.00 Ry     beta= 0.70
     Davidson diagonalization with overlap
     ethr =  1.00E-02,  avg # of iterations =  2.1

     total cpu time spent up to now is        2.8 secs

     total energy              =    -281.13422437 Ry
     Harris-Foulkes estimate   =    -282.07142800 Ry
     estimated scf accuracy    <       2.45619951 Ry

     iteration #  2     ecut=    45.00 Ry     beta= 0.70
     Davidson diagonalization with overlap
     ethr =  3.41E-03,  avg # of iterations =  2.1

     total cpu time spent up to now is        4.0 secs

     total energy              =    -281.58117575 Ry
     Harris-Foulkes estimate   =    -281.70912068 Ry
     estimated scf accuracy    <       0.66705891 Ry

     iteration #  3     ecut=    45.00 Ry     beta= 0.70
     Davidson diagonalization with overlap
     ethr =  9.26E-04,  avg # of iterations =  1.5

     total cpu time spent up to now is        4.9 secs

     total energy              =    -281.61755988 Ry
     Harris-Foulkes estimate   =    -281.63669320 Ry
     estimated scf accuracy    <       0.07925567 Ry

     iteration #  4     ecut=    45.00 Ry     beta= 0.70
     Davidson diagonalization with overlap
     ethr =  1.10E-04,  avg # of iterations =  3.1

     total cpu time spent up to now is        6.2 secs

     total energy              =    -281.63292226 Ry
     Harris-Foulkes estimate   =    -281.64082643 Ry
     estimated scf accuracy    <       0.02371741 Ry

     iteration #  5     ecut=    45.00 Ry     beta= 0.70
     Davidson diagonalization with overlap
     ethr =  3.29E-05,  avg # of iterations =  2.2

     total cpu time spent up to now is        7.3 secs

     total energy              =    -281.63587046 Ry
     Harris-Foulkes estimate   =    -281.63614163 Ry
     estimated scf accuracy    <       0.00130764 Ry

     iteration #  6     ecut=    45.00 Ry     beta= 0.70
     Davidson diagonalization with overlap
     ethr =  1.82E-06,  avg # of iterations =  9.5

     total cpu time spent up to now is        9.8 secs

     total energy              =    -281.63612411 Ry
     Harris-Foulkes estimate   =    -281.63632360 Ry
     estimated scf accuracy    <       0.00049635 Ry

     iteration #  7     ecut=    45.00 Ry     beta= 0.70
     Davidson diagonalization with overlap
     ethr =  6.89E-07,  avg # of iterations =  2.0

     total cpu time spent up to now is       10.8 secs

     total energy              =    -281.63613798 Ry
     Harris-Foulkes estimate   =    -281.63618385 Ry
     estimated scf accuracy    <       0.00010071 Ry

     iteration #  8     ecut=    45.00 Ry     beta= 0.70
     Davidson diagonalization with overlap
     ethr =  1.40E-07,  avg # of iterations =  2.9

     total cpu time spent up to now is       12.0 secs

     total energy              =    -281.63614422 Ry
     Harris-Foulkes estimate   =    -281.63615827 Ry
     estimated scf accuracy    <       0.00005552 Ry

     iteration #  9     ecut=    45.00 Ry     beta= 0.70
     Davidson diagonalization with overlap
     ethr =  7.71E-08,  avg # of iterations =  2.2

     total cpu time spent up to now is       13.0 secs

     total energy              =    -281.63614463 Ry
     Harris-Foulkes estimate   =    -281.63614873 Ry
     estimated scf accuracy    <       0.00001056 Ry

     iteration # 10     ecut=    45.00 Ry     beta= 0.70
     Davidson diagonalization with overlap
     ethr =  1.47E-08,  avg # of iterations =  3.4

     total cpu time spent up to now is       14.4 secs

     total energy              =    -281.63614670 Ry
     Harris-Foulkes estimate   =    -281.63614856 Ry
     estimated scf accuracy    <       0.00000774 Ry

     iteration # 11     ecut=    45.00 Ry     beta= 0.70
     Davidson diagonalization with overlap
     ethr =  1.07E-08,  avg # of iterations =  2.5

     total cpu time spent up to now is       15.4 secs

     End of self-consistent calculation

          k = 0.0000 0.0000 0.0000 ( 10179 PWs)   bands (ev):

    -9.5455  -9.4996  -8.6839  -8.5777  -8.0728  -7.8974  -7.5953  -7.5476
    -1.3989  -1.3177  -0.8543  -0.6086  -0.0260   0.0136   0.1618   0.1932
     1.0762   1.1204   1.1301   1.2465   1.4492   1.5311   1.8541   2.1331
     2.5603   2.5990   2.8116   2.9289   3.4734   3.5090   3.9857   4.2644
     4.3533   4.4353   4.4531   4.5576   4.7600   4.9296   4.9392   5.1942
     6.2053   6.3339   6.6745

          k = 0.0000 0.1766-0.0192 ( 10178 PWs)   bands (ev):

    -9.2563  -9.2187  -8.7541  -8.6551  -8.4098  -8.2186  -7.5828  -7.5079
    -1.1425  -0.9957  -0.8381  -0.7365  -0.1770  -0.0381   0.5861   0.7011
     0.9774   1.1437   1.1687   1.2349   1.2535   1.4441   2.0774   2.2059
     2.3237   2.5468   3.0237   3.2175   3.2624   3.2893   3.7048   3.8338
     3.9328   4.0560   4.2681   4.3354   4.6777   4.7281   4.8030   4.8576
     6.2093   6.3417   6.9867

          k = 0.2000 0.0006-0.0145 ( 10157 PWs)   bands (ev):

    -9.1239  -9.0875  -8.5035  -8.3968  -7.9670  -7.8048  -7.3951  -7.3693
    -0.9175  -0.8494  -0.6104  -0.4841  -0.1872  -0.0553   0.0113   0.1214
     0.8298   0.9909   1.2479   1.2779   1.3279   1.3451   1.5639   1.6100
     1.9167   2.0354   2.5043   2.5755   2.6718   2.6898   3.1221   3.2558
     3.9353   4.1174   4.1953   4.3835   4.7560   4.8601   5.5988   5.6788
     6.8072   6.8356   6.9525

          k = 0.2000 0.1773-0.0337 ( 10153 PWs)   bands (ev):

    -8.8848  -8.8509  -8.5186  -8.4028  -8.2718  -8.0855  -7.4110  -7.3756
    -0.6341  -0.4961  -0.4441  -0.3701  -0.1959   0.0302   0.2057   0.2596
     0.5275   0.5770   0.8953   0.9828   1.0890   1.1737   1.6384   1.7025
     2.1294   2.1480   2.4663   2.5653   2.7162   2.8489   3.3920   3.5025
     3.6385   3.7693   4.1497   4.2331   4.9470   4.9812   5.4031   5.5046
     6.5329   6.6250   6.7421

          k = 0.2000-0.1760 0.0046 ( 10147 PWs)   bands (ev):

    -8.8851  -8.8507  -8.5197  -8.4048  -8.2711  -8.0852  -7.4091  -7.3792
    -0.6279  -0.5015  -0.4502  -0.3812  -0.2023  -0.0089   0.2005   0.2732
     0.4976   0.5904   0.9880   1.0297   1.0802   1.1600   1.6460   1.7082
     2.0755   2.1241   2.4854   2.5120   2.7028   2.8757   3.4815   3.5609
     3.6508   3.7445   4.1386   4.2638   4.9236   4.9770   5.4044   5.4398
     6.5248   6.6155   6.8014

          k = 0.4000 0.0013-0.0290 ( 10113 PWs)   bands (ev):

    -8.2954  -8.2099  -8.1896  -8.0948  -7.7325  -7.5530  -7.2226  -7.1590
    -0.8085  -0.7679  -0.7286  -0.6025  -0.5639  -0.4639   0.2048   0.2339
     0.3454   0.3846   0.6255   0.7532   0.9156   0.9663   1.4281   1.5311
     1.7774   1.8157   1.9229   2.0420   2.3831   2.4548   2.6140   2.6299
     3.2518   3.3600   3.7606   3.8523   5.9026   5.9342   6.2138   6.2396
     6.7025   6.7364   6.8594

          k = 0.4000 0.1779-0.0482 ( 10105 PWs)   bands (ev):

    -8.2940  -8.2096  -8.1899  -8.1234  -7.7123  -7.5672  -7.2166  -7.1458
    -1.2503  -1.2374  -0.8381  -0.8108  -0.3597  -0.3308   0.2583   0.3647
     0.5711   0.5751   0.7739   0.8124   0.9692   1.0582   1.3439   1.4812
     1.7196   1.7752   2.0116   2.0843   2.3597   2.4229   2.9924   3.0935
     3.3386   3.3881   3.6938   3.8261   5.8226   5.8519   6.1550   6.2445
     6.8125   6.9388   7.0341

          k = 0.4000-0.1754-0.0099 ( 10115 PWs)   bands (ev):

    -8.2917  -8.2134  -8.1946  -8.1122  -7.7201  -7.5738  -7.2163  -7.1394
    -1.2504  -1.2176  -0.8348  -0.8207  -0.3499  -0.3153   0.2562   0.3581
     0.5036   0.5627   0.7691   0.8099   0.9431   0.9723   1.3990   1.5035
     1.7577   1.8848   1.9913   2.0597   2.3600   2.4389   3.0124   3.0931
     3.3166   3.4357   3.6861   3.8305   5.8267   5.8582   6.1627   6.1699
     6.8111   6.9143   7.0309

     the Fermi energy is     4.5379 ev

!    total energy              =    -281.63614672 Ry
     Harris-Foulkes estimate   =    -281.63614742 Ry
     estimated scf accuracy    <       0.00000076 Ry

     The total energy is the sum of the following terms:

     one-electron contribution =    -170.68194991 Ry
     hartree contribution      =     121.16518541 Ry
     xc contribution           =    -111.34231519 Ry
     ewald contribution        =    -120.78164647 Ry
     smearing contrib. (-TS)   =       0.00457945 Ry

     convergence has been achieved in  11 iterations

     Forces acting on atoms (cartesian axes, Ry/au):

     atom    1 type  1   force =     0.00900723   -0.06829824    0.01343979
     atom    2 type  1   force =     0.00273096    0.07972898   -0.03479937
     atom    3 type  1   force =     0.00783669    0.05687039    0.00914514
     atom    4 type  1   force =    -0.01139557   -0.06784041    0.01536346
     atom    5 type  2   force =     0.00578849    0.02168925   -0.03960054
     atom    6 type  2   force =    -0.00697872   -0.02421158    0.06724425
     atom    7 type  2   force =    -0.00533789   -0.00203543    0.01602482
     atom    8 type  2   force =    -0.00212980    0.00724704   -0.05890261
     atom    9 type  2   force =     0.00475574   -0.01606267    0.01520179
     atom   10 type  2   force =     0.00292282    0.00879149   -0.00105817
     atom   11 type  2   force =     0.00051966   -0.00285415    0.03137621
     atom   12 type  2   force =    -0.00771960    0.00697533   -0.03343478

     Total force =     0.186310     Total SCF correction =     0.002279
 
     init_run     :      0.88s CPU      0.93s WALL (       1 calls)
     electrons    :     13.53s CPU     13.80s WALL (       1 calls)
     forces       :      0.50s CPU      0.50s WALL (       1 calls)

     Called by init_run:
     wfcinit      :      0.36s CPU      0.39s WALL (       1 calls)
     potinit      :      0.15s CPU      0.15s WALL (       1 calls)
     hinit0       :      0.21s CPU      0.22s WALL (       1 calls)

     Called by electrons:
     c_bands      :      9.82s CPU     10.00s WALL (      11 calls)
     sum_band     :      2.44s CPU      2.50s WALL (      11 calls)
     v_of_rho     :      0.20s CPU      0.21s WALL (      12 calls)
     newd         :      0.89s CPU      0.92s WALL (      12 calls)
     mix_rho      :      0.23s CPU      0.23s WALL (      11 calls)

     Called by c_bands:
     init_us_2    :      0.21s CPU      0.22s WALL (     192 calls)
     cegterg      :      9.15s CPU      9.32s WALL (      88 calls)

     Called by sum_band:
     sum_band:bec :      0.01s CPU      0.01s WALL (      88 calls)
     addusdens    :      1.39s CPU      1.43s WALL (      11 calls)

     Called by *egterg:
     h_psi        :      4.26s CPU      4.40s WALL (     365 calls)
     s_psi        :      0.35s CPU      0.36s WALL (     365 calls)
     g_psi        :      0.02s CPU      0.02s WALL (     269 calls)
     cdiaghg      :      3.52s CPU      3.56s WALL (     357 calls)

     Called by h_psi:
     h_psi:pot    :      4.23s CPU      4.37s WALL (     365 calls)
     h_psi:calbec :      0.61s CPU      0.63s WALL (     365 calls)
     vloc_psi     :      3.25s CPU      3.37s WALL (     365 calls)
     add_vuspsi   :      0.37s CPU      0.37s WALL (     365 calls)

     General routines
     calbec       :      0.88s CPU      0.90s WALL (     485 calls)
     fft          :      0.20s CPU      0.21s WALL (     165 calls)
     ffts         :      0.12s CPU      0.12s WALL (     371 calls)
     fftw         :      3.64s CPU      3.77s WALL (   23964 calls)
     interpolate  :      0.02s CPU      0.02s WALL (      12 calls)
 
     Parallel routines
     fft_scatt_xy :      0.30s CPU      0.31s WALL (   24500 calls)
     fft_scatt_yz :      2.38s CPU      2.46s WALL (   24500 calls)
 
     PWSCF        :     15.61s CPU     16.03s WALL

 
   This run was terminated on:  10:48:23  14Oct2021            

=------------------------------------------------------------------------------=
   JOB DONE.
=------------------------------------------------------------------------------=
