
     Program PWSCF v.6.4 starts on 24Dec2021 at 21:19: 9 

     This program is part of the open-source Quantum ESPRESSO suite
     for quantum simulation of materials; please cite
         "P. Giannozzi et al., J. Phys.:Condens. Matter 21 395502 (2009);
         "P. Giannozzi et al., J. Phys.:Condens. Matter 29 465901 (2017);
          URL http://www.quantum-espresso.org", 
     in publications or presentations arising from this work. More details at
     http://www.quantum-espresso.org/quote

     Parallel version (MPI), running on    40 processors

     MPI processes distributed on     1 nodes
     R & G space division:  proc/nbgrp/npool/nimage =      40
     Waiting for input...
     Reading input from standard input
Warning: card    &IONS ignored
Warning: card      ION_DYNAMICS = 'BFGS' ignored
Warning: card   / ignored
Warning: card    &CELL ignored
Warning: card      CELL_DYNAMICS = 'BFGS', ignored
Warning: card    / ignored

     Current dimensions of program PWSCF are:
     Max number of different atomic species (ntypx) = 10
     Max number of k-points (npk) =  40000
     Max angular momentum in pseudopotentials (lmaxx) =  3

     Subspace diagonalization in iterative solution of the eigenvalue problem:
     one sub-group per band group will be used
     scalapack distributed-memory algorithm (size of sub-group:  4*  4 procs)

 
     Parallelization info
     --------------------
     sticks:   dense  smooth     PW     G-vecs:    dense   smooth      PW
     Min         234     117     32                17382     6145     877
     Max         235     118     33                17388     6150     880
     Sum        9397    4701   1283               695443   245871   35161
 


     bravais-lattice index     =            0
     lattice parameter (alat)  =      17.9572  a.u.
     unit-cell volume          =    6029.3068 (a.u.)^3
     number of atoms/cell      =           42
     number of atomic types    =            2
     number of electrons       =       252.00
     number of Kohn-Sham states=          151
     kinetic-energy cutoff     =      45.0000  Ry
     charge density cutoff     =     360.0000  Ry
     convergence threshold     =      1.0E-06
     mixing beta               =       0.7000
     number of iterations used =            8  local-TF  mixing
     Exchange-correlation      = SLA PW GGX GGC ( 1  4  2  2 0 0)

     celldm(1)=  17.957211  celldm(2)=   0.000000  celldm(3)=   0.000000
     celldm(4)=   0.000000  celldm(5)=   0.000000  celldm(6)=   0.000000

     crystal axes: (cart. coord. in units of alat)
               a(1) = (   1.000000   0.000000   0.000000 )  
               a(2) = (  -0.022441   1.016946   0.000000 )  
               a(3) = (  -0.010752  -0.043755   1.023889 )  

     reciprocal axes: (cart. coord. in units 2 pi/alat)
               b(1) = (  1.000000  0.022067  0.011444 )  
               b(2) = (  0.000000  0.983336  0.042022 )  
               b(3) = (  0.000000  0.000000  0.976669 )  


     PseudoPot. # 1 for Mo read from file:
     ~/pseudo/Mo.pw91-n-van.UPF
     MD5 check sum: Not computed, couldn't open file
     Pseudo is Ultrasoft + core correction, Zval =  6.0
     Generated by new atomic code, or converted to UPF format
     Using radial grid of  965 points,  3 beta functions with: 
                l(1) =   1
                l(2) =   2
                l(3) =   2
     Q(r) pseudized with  8 coefficients,  rinner =    1.000   1.000   1.000
                                                       1.200   1.200

     PseudoPot. # 2 for S  read from file:
     ~/pseudo/S.pw91-van_ak.UPF
     MD5 check sum: Not computed, couldn't open file
     Pseudo is Ultrasoft, Zval =  6.0
     Generated by new atomic code, or converted to UPF format
     Using radial grid of  811 points,  6 beta functions with: 
                l(1) =   0
                l(2) =   0
                l(3) =   1
                l(4) =   1
                l(5) =   2
                l(6) =   2
     Q(r) pseudized with  8 coefficients,  rinner =    1.100   1.100   1.100
                                                       1.100   1.100

     atomic species   valence    mass     pseudopotential
        Mo             6.00    95.50000     Mo( 1.00)
        S              6.00    32.06500     S ( 1.00)

     No symmetry found



   Cartesian axes

     site n.     atom                  positions (alat units)
         1           Mo  tau(   1) = (   0.5891407   0.3928430   0.0929016  )
         2           Mo  tau(   2) = (   0.8822736   0.3856091   0.3966396  )
         3           Mo  tau(   3) = (   0.8225930   0.1366427   0.1714344  )
         4           Mo  tau(   4) = (   0.6070105   0.1025757   0.4084513  )
         5           Mo  tau(   5) = (   0.5738595   0.9006259   0.6237457  )
         6           Mo  tau(   6) = (   0.7934525   0.8296145   0.8847365  )
         7           Mo  tau(   7) = (   0.8773967   0.5911450   0.6120352  )
         8           Mo  tau(   8) = (   0.5886261   0.5931646   0.9041412  )
         9           Mo  tau(   9) = (   0.3585867   0.9033182   0.4230654  )
        10           Mo  tau(  10) = (   0.3818328   0.6050385   0.0944661  )
        11           Mo  tau(  11) = (   0.0898695   0.6108025   0.4014743  )
        12           Mo  tau(  12) = (   0.1157175   0.3926640   0.5906549  )
        13           Mo  tau(  13) = (   0.3924531   0.3808307   0.8715223  )
        14           Mo  tau(  14) = (   0.4020516   0.1190161   0.6162950  )
        15           S   tau(  15) = (   0.8532462   0.3683882   0.1294611  )
        16           S   tau(  16) = (   0.6287184   0.3629738   0.3577756  )
        17           S   tau(  17) = (   0.6018351   0.8730222   0.3753610  )
        18           S   tau(  18) = (   0.8171199   0.8821629   0.1341843  )
        19           S   tau(  19) = (   0.8445748   0.6308657   0.3704329  )
        20           S   tau(  20) = (   0.6224549   0.6411611   0.1356411  )
        21           S   tau(  21) = (   0.3580811   0.6325608   0.3727864  )
        22           S   tau(  22) = (   0.8384752   0.8590854   0.6493811  )
        23           S   tau(  23) = (   0.5667816   0.8614542   0.8887593  )
        24           S   tau(  24) = (   0.6313320   0.3477549   0.8791892  )
        25           S   tau(  25) = (   0.8861451   0.3400612   0.6475958  )
        26           S   tau(  26) = (   0.9413257  -0.0038091   1.0001258  )
        27           S   tau(  27) = (   0.6406023   0.1206804   0.6615432  )
        28           S   tau(  28) = (   0.2970044   0.8563410   0.1566341  )
        29           S   tau(  29) = (   0.5918797   0.1264289   0.1383546  )
        30           S   tau(  30) = (   0.0964500   0.8762114   0.4118036  )
        31           S   tau(  31) = (   0.1259426   0.3662418   0.3423289  )
        32           S   tau(  32) = (   0.3357609   0.3645467   0.0753538  )
        33           S   tau(  33) = (   0.3618594   0.1272327   0.3772323  )
        34           S   tau(  34) = (   0.8741541   0.1150748   0.3971779  )
        35           S   tau(  35) = (   0.3865591   0.3900927   0.6060806  )
        36           S   tau(  36) = (   0.6211393   0.6361553   0.6437218  )
        37           S   tau(  37) = (   0.2202413   0.2257096   0.7584460  )
        38           S   tau(  38) = (   0.1423644   0.7016680   0.1476277  )
        39           S   tau(  39) = (   0.3235470   0.9049233   0.6726242  )
        40           S   tau(  40) = (   0.3379909   0.6188083   0.8798314  )
        41           S   tau(  41) = (   0.1180087   0.6238563   0.6494403  )
        42           S   tau(  42) = (   0.8511242   0.5975456   0.8818512  )

     number of k points=     8  Marzari-Vanderbilt smearing, width (Ry)=  0.0200
                       cart. coord. in units 2pi/alat
        k(    1) = (   0.0000000   0.0000000   0.0000000), wk =   0.2500000
        k(    2) = (   0.0000000   0.0000000  -0.4883343), wk =   0.2500000
        k(    3) = (   0.0000000  -0.4916682  -0.0210112), wk =   0.2500000
        k(    4) = (   0.0000000  -0.4916682  -0.5093455), wk =   0.2500000
        k(    5) = (  -0.5000000  -0.0110337  -0.0057220), wk =   0.2500000
        k(    6) = (  -0.5000000  -0.0110337  -0.4940563), wk =   0.2500000
        k(    7) = (  -0.5000000  -0.5027019  -0.0267332), wk =   0.2500000
        k(    8) = (  -0.5000000  -0.5027019  -0.5150675), wk =   0.2500000

     Dense  grid:   695443 G-vectors     FFT dimensions: ( 120, 120, 120)

     Smooth grid:   245871 G-vectors     FFT dimensions: (  80,  80,  80)

     Estimated max dynamical RAM per process >     125.82 MB

     Estimated total dynamical RAM >       4.91 GB

     Initial potential from superposition of free atoms

     starting charge  251.97792, renormalised to  252.00000
     Starting wfcs are  238 randomized atomic wfcs

     total cpu time spent up to now is        6.6 secs

     Self-consistent Calculation

     iteration #  1     ecut=    45.00 Ry     beta= 0.70
     Davidson diagonalization with overlap
     ethr =  1.00E-02,  avg # of iterations =  2.0

     total cpu time spent up to now is       17.6 secs

     total energy              =    -983.81856579 Ry
     Harris-Foulkes estimate   =    -986.70412414 Ry
     estimated scf accuracy    <       7.70693353 Ry

     iteration #  2     ecut=    45.00 Ry     beta= 0.70
     Davidson diagonalization with overlap
     ethr =  3.06E-03,  avg # of iterations =  2.0

     total cpu time spent up to now is       27.7 secs

     total energy              =    -985.00692844 Ry
     Harris-Foulkes estimate   =    -985.53621997 Ry
     estimated scf accuracy    <       2.68863885 Ry

     iteration #  3     ecut=    45.00 Ry     beta= 0.70
     Davidson diagonalization with overlap
     ethr =  1.07E-03,  avg # of iterations =  2.0

     total cpu time spent up to now is       36.1 secs

     total energy              =    -985.23901277 Ry
     Harris-Foulkes estimate   =    -985.31477225 Ry
     estimated scf accuracy    <       0.78861074 Ry

     iteration #  4     ecut=    45.00 Ry     beta= 0.70
     Davidson diagonalization with overlap
     ethr =  3.13E-04,  avg # of iterations =  1.0

     total cpu time spent up to now is       43.9 secs

     total energy              =    -985.22896136 Ry
     Harris-Foulkes estimate   =    -985.27518170 Ry
     estimated scf accuracy    <       0.18808718 Ry

     iteration #  5     ecut=    45.00 Ry     beta= 0.70
     Davidson diagonalization with overlap
     ethr =  7.46E-05,  avg # of iterations =  3.8

     total cpu time spent up to now is       55.4 secs

     total energy              =    -985.25700387 Ry
     Harris-Foulkes estimate   =    -985.26376339 Ry
     estimated scf accuracy    <       0.05524590 Ry

     iteration #  6     ecut=    45.00 Ry     beta= 0.70
     Davidson diagonalization with overlap
     c_bands:  1 eigenvalues not converged
     c_bands:  1 eigenvalues not converged
     ethr =  2.19E-05,  avg # of iterations = 14.9

     total cpu time spent up to now is       74.6 secs

     total energy              =    -985.25894519 Ry
     Harris-Foulkes estimate   =    -985.26162513 Ry
     estimated scf accuracy    <       0.01556317 Ry

     iteration #  7     ecut=    45.00 Ry     beta= 0.70
     Davidson diagonalization with overlap
     c_bands:  1 eigenvalues not converged
     ethr =  6.18E-06,  avg # of iterations =  8.2

     total cpu time spent up to now is       87.3 secs

     total energy              =    -985.26050237 Ry
     Harris-Foulkes estimate   =    -985.26092036 Ry
     estimated scf accuracy    <       0.00521826 Ry

     iteration #  8     ecut=    45.00 Ry     beta= 0.70
     Davidson diagonalization with overlap
     ethr =  2.07E-06,  avg # of iterations =  6.8

     total cpu time spent up to now is       98.8 secs

     total energy              =    -985.26073343 Ry
     Harris-Foulkes estimate   =    -985.26084147 Ry
     estimated scf accuracy    <       0.00091138 Ry

     iteration #  9     ecut=    45.00 Ry     beta= 0.70
     Davidson diagonalization with overlap
     ethr =  3.62E-07,  avg # of iterations =  4.5

     total cpu time spent up to now is      110.7 secs

     total energy              =    -985.26087214 Ry
     Harris-Foulkes estimate   =    -985.26091861 Ry
     estimated scf accuracy    <       0.00032026 Ry

     iteration # 10     ecut=    45.00 Ry     beta= 0.70
     Davidson diagonalization with overlap
     ethr =  1.27E-07,  avg # of iterations =  2.0

     total cpu time spent up to now is      119.1 secs

     total energy              =    -985.26088481 Ry
     Harris-Foulkes estimate   =    -985.26089990 Ry
     estimated scf accuracy    <       0.00008238 Ry

     iteration # 11     ecut=    45.00 Ry     beta= 0.70
     Davidson diagonalization with overlap
     ethr =  3.27E-08,  avg # of iterations =  3.0

     total cpu time spent up to now is      129.7 secs

     total energy              =    -985.26089674 Ry
     Harris-Foulkes estimate   =    -985.26089988 Ry
     estimated scf accuracy    <       0.00002459 Ry

     iteration # 12     ecut=    45.00 Ry     beta= 0.70
     Davidson diagonalization with overlap
     ethr =  9.76E-09,  avg # of iterations =  2.0

     total cpu time spent up to now is      138.1 secs

     total energy              =    -985.26089834 Ry
     Harris-Foulkes estimate   =    -985.26089902 Ry
     estimated scf accuracy    <       0.00000401 Ry

     iteration # 13     ecut=    45.00 Ry     beta= 0.70
     Davidson diagonalization with overlap
     ethr =  1.59E-09,  avg # of iterations =  3.1

     total cpu time spent up to now is      148.7 secs

     total energy              =    -985.26089894 Ry
     Harris-Foulkes estimate   =    -985.26089909 Ry
     estimated scf accuracy    <       0.00000102 Ry

     iteration # 14     ecut=    45.00 Ry     beta= 0.70
     Davidson diagonalization with overlap
     ethr =  4.04E-10,  avg # of iterations =  2.9

     total cpu time spent up to now is      157.7 secs

     End of self-consistent calculation

          k = 0.0000 0.0000 0.0000 ( 30737 PWs)   bands (ev):

    -8.5614  -7.9231  -7.5457  -7.3046  -7.2319  -7.1054  -7.0785  -7.0008
    -6.8464  -6.7570  -6.7030  -6.6451  -6.5993  -6.5648  -6.4956  -6.4745
    -6.4581  -6.3748  -6.3330  -6.3040  -6.2321  -5.8064  -5.5842  -5.4878
    -5.3079  -5.2070  -5.0540  -4.3750   0.2703   0.3513   0.3682   0.4416
     0.6143   0.7056   0.8083   0.9371   1.0462   1.0809   1.1854   1.2229
     1.2312   1.3523   1.4013   1.4550   1.5033   1.6204   1.6610   1.7154
     1.7889   1.8129   1.9149   1.9490   1.9778   1.9887   2.0879   2.1207
     2.1589   2.2157   2.2517   2.3016   2.3588   2.4271   2.4496   2.4718
     2.4878   2.5590   2.5693   2.6250   2.6796   2.7266   2.7891   2.7962
     2.8138   2.8655   2.8928   2.9036   2.9085   2.9849   3.0650   3.0762
     3.0929   3.1824   3.2177   3.2657   3.2965   3.4275   3.4366   3.4833
     3.5225   3.5811   3.6014   3.7374   3.7833   3.8823   3.9534   4.0346
     4.1092   4.3047   4.4108   4.4669   4.5644   4.7088   4.7723   4.8310
     4.8806   5.0118   5.0494   5.1188   5.1924   5.2344   5.3688   5.5135
     5.5654   5.5856   5.6644   5.7662   5.8421   5.8953   5.9832   6.0113
     6.2173   6.2796   6.3185   6.4078   6.4674   6.5125   6.5666   6.6828
     6.6994   6.8297   6.9668   7.0449   7.1514   7.2910   7.3896   7.6066
     7.6261   7.7826   7.8776   8.0397   8.0973   8.2274   8.2949   8.3441
     8.3733   8.4200   8.4931   8.5504   8.5823   8.6331   8.6735

          k = 0.0000 0.0000-0.4883 ( 30738 PWs)   bands (ev):

    -8.5529  -7.7828  -7.7324  -7.3359  -7.2670  -7.1186  -7.0240  -6.9059
    -6.8235  -6.7711  -6.7457  -6.6947  -6.6573  -6.5134  -6.4983  -6.4656
    -6.4380  -6.3863  -6.3099  -6.2852  -6.2362  -5.8039  -5.5993  -5.4691
    -5.2981  -5.2225  -5.0436  -4.3744   0.3832   0.4933   0.5675   0.6107
     0.6688   0.7487   0.8131   0.8993   0.9469   1.0113   1.1156   1.1366
     1.1987   1.2484   1.2901   1.4531   1.4910   1.5765   1.6097   1.6274
     1.6740   1.7764   1.8469   1.9102   1.9361   1.9594   1.9856   2.0752
     2.1238   2.1543   2.2567   2.2653   2.2798   2.3383   2.3864   2.4418
     2.4956   2.5457   2.6055   2.6603   2.7040   2.7552   2.7874   2.8190
     2.8387   2.8814   2.9125   2.9253   2.9440   3.0008   3.0614   3.0815
     3.1676   3.2007   3.2712   3.3058   3.3695   3.3789   3.4577   3.5233
     3.5360   3.6519   3.7066   3.7715   3.8664   3.9117   4.0169   4.1502
     4.1641   4.3194   4.3861   4.6222   4.6358   4.7172   4.7964   4.8204
     4.8374   4.9889   5.0525   5.1289   5.1665   5.2630   5.3560   5.4180
     5.5840   5.6209   5.7258   5.7620   5.7865   5.8921   5.9485   5.9972
     6.1623   6.1896   6.2853   6.3425   6.4348   6.5177   6.5643   6.6524
     6.7010   6.8100   6.8290   7.0023   7.1875   7.3311   7.4484   7.5800
     7.6163   7.8547   8.0333   8.1045   8.1166   8.2201   8.2441   8.3281
     8.3885   8.4579   8.5183   8.5669   8.5742   8.6391   8.6905

          k = 0.0000-0.4917-0.0210 ( 30722 PWs)   bands (ev):

    -8.5552  -7.7707  -7.7191  -7.3553  -7.2718  -7.1019  -7.0080  -6.9639
    -6.8732  -6.7749  -6.7177  -6.6584  -6.6448  -6.5373  -6.4714  -6.4530
    -6.4220  -6.3713  -6.3303  -6.3121  -6.2412  -5.8040  -5.5967  -5.4711
    -5.2952  -5.2031  -5.0572  -4.3740   0.4061   0.5280   0.6002   0.6576
     0.6726   0.7406   0.7865   0.8285   0.9463   0.9870   1.1162   1.1677
     1.1996   1.2364   1.2991   1.4155   1.4556   1.5252   1.6197   1.6584
     1.6894   1.7704   1.8170   1.8655   1.9323   1.9529   2.0169   2.0511
     2.1491   2.2044   2.2401   2.2880   2.2997   2.3216   2.4480   2.4582
     2.4867   2.5536   2.5921   2.6697   2.6872   2.7672   2.7692   2.8189
     2.8573   2.8874   2.8986   2.9579   2.9676   3.0000   3.0258   3.1199
     3.1506   3.2086   3.2435   3.2937   3.3280   3.3712   3.4205   3.4800
     3.5161   3.6614   3.6716   3.8001   3.8549   3.9895   4.0644   4.0864
     4.2622   4.3878   4.4323   4.4824   4.5354   4.6512   4.7442   4.8285
     4.8644   4.9340   4.9645   5.1262   5.3326   5.3372   5.4004   5.4473
     5.5086   5.6868   5.7252   5.7583   5.8197   5.8495   5.9211   5.9955
     6.1214   6.2738   6.3637   6.4203   6.4646   6.5066   6.5326   6.6091
     6.7660   6.8160   6.8202   6.9574   7.1432   7.2265   7.4893   7.6034
     7.6549   7.9629   7.9885   8.1130   8.1539   8.1719   8.2085   8.2548
     8.3885   8.4704   8.5494   8.5513   8.5872   8.6045   8.6842

          k = 0.0000-0.4917-0.5093 ( 30678 PWs)   bands (ev):

    -8.5494  -7.7191  -7.5825  -7.5586  -7.3375  -7.1475  -7.0360  -6.9238
    -6.8380  -6.7793  -6.6888  -6.6480  -6.6133  -6.5623  -6.4792  -6.4579
    -6.4227  -6.3702  -6.3210  -6.2689  -6.2492  -5.8141  -5.5745  -5.4804
    -5.3024  -5.2038  -5.0440  -4.3734   0.5184   0.6182   0.6741   0.7039
     0.7527   0.8079   0.8426   0.8860   0.9522   0.9820   1.0628   1.1139
     1.2042   1.2800   1.3298   1.3684   1.4028   1.4575   1.5051   1.5919
     1.6187   1.6630   1.7208   1.7505   1.8909   1.9689   1.9937   2.0772
     2.1006   2.1513   2.1630   2.2714   2.3015   2.3273   2.3461   2.4082
     2.4683   2.5426   2.5747   2.6188   2.6452   2.6792   2.7025   2.7915
     2.8128   2.8389   2.9238   2.9622   2.9830   3.0096   3.0561   3.1147
     3.1287   3.2171   3.2849   3.3411   3.3648   3.3710   3.4533   3.4648
     3.5989   3.7674   3.7839   3.8773   3.9416   4.0361   4.1933   4.2815
     4.3592   4.3869   4.4612   4.5231   4.6015   4.7686   4.7747   4.8250
     4.9082   4.9502   5.0542   5.1126   5.1377   5.2387   5.3066   5.4067
     5.5541   5.7055   5.7203   5.8070   5.8508   5.9026   5.9427   5.9533
     6.0785   6.1973   6.2470   6.2786   6.4387   6.4823   6.5899   6.6420
     6.7299   6.8184   6.8734   7.0051   7.0680   7.2102   7.4417   7.5899
     7.6190   7.9126   7.9572   8.0278   8.2149   8.2554   8.3677   8.3919
     8.4758   8.4886   8.5173   8.5889   8.6355   8.6814   8.6934

          k =-0.5000-0.0110-0.0057 ( 30750 PWs)   bands (ev):

    -8.5515  -7.8924  -7.5677  -7.3579  -7.2447  -7.0870  -7.0310  -6.9729
    -6.9366  -6.7715  -6.7368  -6.6354  -6.5704  -6.5361  -6.4913  -6.4667
    -6.4501  -6.3781  -6.3487  -6.2880  -6.2423  -5.8243  -5.5819  -5.4767
    -5.2746  -5.2207  -5.0514  -4.3728   0.3410   0.4378   0.4915   0.6287
     0.6560   0.7362   0.8070   0.8935   1.0547   1.1257   1.1647   1.2027
     1.2493   1.2910   1.4356   1.4529   1.4778   1.5914   1.6199   1.6527
     1.7364   1.7513   1.7924   1.8258   1.9130   1.9823   1.9927   2.0457
     2.0530   2.0697   2.1918   2.2591   2.3144   2.3870   2.4007   2.4486
     2.5064   2.5293   2.5707   2.6110   2.6377   2.7039   2.7526   2.7882
     2.8111   2.8329   2.9146   2.9440   2.9794   3.0355   3.0890   3.1087
     3.1564   3.2001   3.2405   3.3052   3.3659   3.3963   3.4684   3.5335
     3.5631   3.6371   3.7354   3.8014   3.8814   3.9404   4.0120   4.0574
     4.1888   4.3390   4.4175   4.4773   4.5938   4.6937   4.7246   4.7648
     4.8808   4.9497   5.0086   5.1267   5.2449   5.2793   5.3540   5.3771
     5.5247   5.5985   5.6372   5.7529   5.8062   5.8834   5.9521   6.0545
     6.1280   6.2471   6.3341   6.4365   6.4520   6.5313   6.5761   6.6611
     6.7386   6.8911   6.9494   7.0912   7.1374   7.3023   7.5293   7.6209
     7.6902   7.8175   7.9102   8.0837   8.1294   8.1776   8.2218   8.3338
     8.3820   8.4738   8.4903   8.5497   8.6320   8.6594   8.6871

          k =-0.5000-0.0110-0.4941 ( 30776 PWs)   bands (ev):

    -8.5466  -7.7611  -7.6499  -7.4894  -7.2703  -7.1067  -7.0114  -6.9458
    -6.8238  -6.7899  -6.7316  -6.6523  -6.6175  -6.5715  -6.5122  -6.4773
    -6.4258  -6.3582  -6.3023  -6.2755  -6.2453  -5.8187  -5.5986  -5.4525
    -5.3006  -5.1976  -5.0452  -4.3735   0.4931   0.5846   0.6866   0.7216
     0.7389   0.7885   0.8337   0.8719   0.9139   1.0037   1.1270   1.1663
     1.2454   1.2668   1.3480   1.4092   1.4489   1.4776   1.5270   1.5610
     1.6444   1.6869   1.7513   1.8058   1.8312   1.9076   1.9308   1.9781
     2.0396   2.1204   2.1803   2.1823   2.3179   2.3905   2.4078   2.4249
     2.5285   2.5506   2.5796   2.6119   2.6900   2.7378   2.7844   2.8383
     2.8394   2.8631   2.8659   2.8942   2.9260   3.0278   3.0810   3.1266
     3.1463   3.1777   3.2644   3.3109   3.3444   3.3831   3.5176   3.5569
     3.6726   3.7062   3.7632   3.8331   3.9078   4.0043   4.0701   4.2609
     4.2660   4.3402   4.4083   4.5413   4.6468   4.6565   4.7216   4.7843
     4.8640   4.9867   5.0236   5.0568   5.1305   5.2401   5.3124   5.5139
     5.5540   5.5647   5.6880   5.7993   5.8402   5.8792   5.9063   6.0622
     6.1699   6.2431   6.2786   6.3961   6.4928   6.5139   6.5486   6.5648
     6.7381   6.8130   6.8434   7.0258   7.1852   7.2616   7.5295   7.6191
     7.7151   7.8841   7.9273   8.0896   8.1377   8.2323   8.3031   8.3922
     8.4439   8.5046   8.5870   8.6117   8.6484   8.6988   8.7240

          k =-0.5000-0.5027-0.0267 ( 30712 PWs)   bands (ev):

    -8.5485  -7.7533  -7.6338  -7.4857  -7.2924  -7.0696  -7.0558  -6.9488
    -6.9065  -6.7463  -6.7037  -6.6260  -6.6211  -6.5752  -6.4984  -6.4505
    -6.4240  -6.3832  -6.3280  -6.2796  -6.2449  -5.8260  -5.5937  -5.4540
    -5.2758  -5.1955  -5.0545  -4.3744   0.5136   0.5989   0.6583   0.6958
     0.7350   0.7830   0.8270   0.8437   0.9600   1.0271   1.0621   1.1629
     1.3077   1.3268   1.3515   1.4112   1.4647   1.4755   1.5281   1.5578
     1.6145   1.6869   1.7612   1.8102   1.8549   1.9230   1.9394   2.0109
     2.0533   2.1112   2.1436   2.2261   2.2595   2.2722   2.4237   2.4373
     2.5032   2.5430   2.5924   2.6414   2.6826   2.6999   2.7866   2.8116
     2.8145   2.8874   2.8916   2.9098   2.9607   3.0180   3.0777   3.0797
     3.1361   3.1755   3.2308   3.2987   3.3527   3.4160   3.4508   3.5063
     3.7202   3.7341   3.7940   3.8438   3.8992   3.9529   4.1363   4.1807
     4.2665   4.4096   4.4575   4.5437   4.5998   4.6093   4.6776   4.8009
     4.8768   4.9382   4.9789   5.1049   5.2158   5.2989   5.3802   5.4549
     5.5179   5.6186   5.7217   5.7306   5.8433   5.9164   5.9736   6.0684
     6.1698   6.2398   6.2540   6.3039   6.4977   6.5451   6.5550   6.6536
     6.7857   6.8240   6.8627   7.0010   7.1100   7.2249   7.5633   7.6101
     7.7345   7.8759   7.9656   8.0300   8.1254   8.1528   8.2923   8.4382
     8.4655   8.4820   8.5361   8.5666   8.6162   8.6613   8.7145

          k =-0.5000-0.5027-0.5151 ( 30758 PWs)   bands (ev):

    -8.5450  -7.6892  -7.5517  -7.5160  -7.3327  -7.2493  -7.0988  -7.0218
    -6.8303  -6.7392  -6.6770  -6.6296  -6.5857  -6.5123  -6.5022  -6.4501
    -6.4407  -6.3815  -6.2862  -6.2815  -6.2577  -5.8326  -5.5686  -5.4553
    -5.2923  -5.1870  -5.0491  -4.3753   0.5824   0.6342   0.7112   0.7594
     0.8042   0.8441   0.8500   0.9126   0.9679   1.1160   1.1839   1.2299
     1.2690   1.3062   1.3412   1.3821   1.4052   1.4554   1.4673   1.4939
     1.5196   1.5227   1.6206   1.7290   1.7858   1.8477   1.8696   1.9377
     1.9996   2.1228   2.1376   2.1506   2.2744   2.3182   2.3838   2.4412
     2.4510   2.5218   2.6106   2.6319   2.6614   2.6859   2.7445   2.7944
     2.8323   2.8437   2.9012   2.9337   2.9594   2.9954   3.0647   3.0787
     3.1347   3.2505   3.2801   3.3224   3.3637   3.3673   3.4114   3.4440
     3.5787   3.6818   3.7929   3.9523   4.1269   4.1570   4.2680   4.3453
     4.3898   4.4454   4.4576   4.5475   4.5752   4.7214   4.7449   4.7980
     4.8783   4.9618   4.9934   5.1204   5.1606   5.2807   5.3354   5.4123
     5.5573   5.6003   5.6651   5.7386   5.8329   5.9106   5.9614   6.0663
     6.1598   6.2887   6.3227   6.3592   6.3830   6.4871   6.5094   6.5597
     6.7688   6.8368   6.8934   7.0060   7.1193   7.1982   7.5350   7.5955
     7.6570   7.9722   8.0021   8.0647   8.1887   8.2596   8.3502   8.3824
     8.4336   8.4906   8.5230   8.5812   8.6058   8.6854   8.6867

     the Fermi energy is     6.5506 ev

!    total energy              =    -985.26089878 Ry
     Harris-Foulkes estimate   =    -985.26089906 Ry
     estimated scf accuracy    <       0.00000037 Ry

     The total energy is the sum of the following terms:

     one-electron contribution =    -128.37790942 Ry
     hartree contribution      =     205.76609304 Ry
     xc contribution           =    -390.31356466 Ry
     ewald contribution        =    -672.33021702 Ry
     smearing contrib. (-TS)   =      -0.00530071 Ry

     convergence has been achieved in  14 iterations

     Forces acting on atoms (cartesian axes, Ry/au):

     atom    1 type  1   force =     0.00505595   -0.01324922    0.04273996
     atom    2 type  1   force =     0.00359509   -0.04458894   -0.01607233
     atom    3 type  1   force =     0.00054490   -0.03709692   -0.02756123
     atom    4 type  1   force =     0.04430855    0.00281472   -0.03109746
     atom    5 type  1   force =     0.02414759   -0.05203518    0.02518953
     atom    6 type  1   force =     0.04761912    0.02288585    0.02368069
     atom    7 type  1   force =    -0.03114454   -0.00916105    0.03577039
     atom    8 type  1   force =     0.02839673    0.04369802    0.01283668
     atom    9 type  1   force =    -0.05338376   -0.04905653   -0.01036118
     atom   10 type  1   force =    -0.00713944    0.04323467    0.03631505
     atom   11 type  1   force =     0.06130972    0.07764364   -0.01765835
     atom   12 type  1   force =     0.05695680   -0.04691352   -0.01514896
     atom   13 type  1   force =    -0.03253512   -0.00819538   -0.02919651
     atom   14 type  1   force =    -0.02988354    0.04244886    0.00210264
     atom   15 type  2   force =     0.04499398    0.06739510   -0.03697293
     atom   16 type  2   force =    -0.03493318    0.00293281    0.02026650
     atom   17 type  2   force =     0.01242187   -0.01872044    0.00138253
     atom   18 type  2   force =     0.01735398    0.02772526   -0.01938991
     atom   19 type  2   force =    -0.02276708    0.02055957   -0.01826412
     atom   20 type  2   force =     0.00274195   -0.00255908   -0.00431323
     atom   21 type  2   force =    -0.00769975    0.00321279    0.00626402
     atom   22 type  2   force =     0.04255626    0.02432899   -0.04574861
     atom   23 type  2   force =    -0.08349196    0.00333560    0.02615508
     atom   24 type  2   force =     0.04175791   -0.02177566   -0.05251157
     atom   25 type  2   force =    -0.05563155   -0.00433964    0.00983513
     atom   26 type  2   force =     0.01503725    0.00471140   -0.00677854
     atom   27 type  2   force =     0.02868240    0.04623696   -0.00842959
     atom   28 type  2   force =     0.00765210    0.00207026   -0.01549158
     atom   29 type  2   force =    -0.06387942   -0.01368771   -0.01267758
     atom   30 type  2   force =     0.01162369   -0.01625138    0.01180719
     atom   31 type  2   force =     0.01732111    0.00556323    0.01214186
     atom   32 type  2   force =    -0.02364089   -0.03955539    0.05348476
     atom   33 type  2   force =    -0.03440763    0.03627733   -0.02728692
     atom   34 type  2   force =     0.01232717   -0.01608420    0.06171709
     atom   35 type  2   force =     0.00871450    0.00932245   -0.01211829
     atom   36 type  2   force =    -0.03289618   -0.01851389   -0.00458241
     atom   37 type  2   force =    -0.04687844   -0.04543826    0.04927105
     atom   38 type  2   force =    -0.01638377   -0.01409880   -0.02003950
     atom   39 type  2   force =    -0.00761622   -0.04665360    0.00126725
     atom   40 type  2   force =    -0.00351508    0.01328103   -0.02463086
     atom   41 type  2   force =     0.03576191    0.05068754    0.00611300
     atom   42 type  2   force =     0.01694699   -0.03239128    0.01799124

     Total force =     0.351583     Total SCF correction =     0.001268
 
     init_run     :      5.69s CPU      5.84s WALL (       1 calls)
     electrons    :    148.39s CPU    151.06s WALL (       1 calls)
     forces       :      3.31s CPU      3.39s WALL (       1 calls)

     Called by init_run:
     wfcinit      :      4.01s CPU      4.10s WALL (       1 calls)
     potinit      :      0.47s CPU      0.48s WALL (       1 calls)
     hinit0       :      0.63s CPU      0.64s WALL (       1 calls)

     Called by electrons:
     c_bands      :    125.44s CPU    126.99s WALL (      14 calls)
     sum_band     :     18.02s CPU     18.85s WALL (      14 calls)
     v_of_rho     :      0.91s CPU      0.95s WALL (      15 calls)
     newd         :      3.40s CPU      3.65s WALL (      15 calls)
     mix_rho      :      0.77s CPU      0.78s WALL (      14 calls)

     Called by c_bands:
     init_us_2    :      1.97s CPU      1.99s WALL (     240 calls)
     cegterg      :    116.88s CPU    118.38s WALL (     112 calls)

     Called by sum_band:
     sum_band:bec :      0.26s CPU      0.26s WALL (     112 calls)
     addusdens    :      4.60s CPU      5.15s WALL (      14 calls)

     Called by *egterg:
     h_psi        :     56.35s CPU     57.36s WALL (     585 calls)
     s_psi        :     12.44s CPU     12.46s WALL (     585 calls)
     g_psi        :      0.22s CPU      0.23s WALL (     465 calls)
     cdiaghg      :     29.77s CPU     30.21s WALL (     577 calls)

     Called by h_psi:
     h_psi:pot    :     55.90s CPU     56.89s WALL (     585 calls)
     h_psi:calbec :     13.75s CPU     14.02s WALL (     585 calls)
     vloc_psi     :     29.63s CPU     30.33s WALL (     585 calls)
     add_vuspsi   :     12.51s CPU     12.54s WALL (     585 calls)

     General routines
     calbec       :     20.48s CPU     20.90s WALL (     729 calls)
     fft          :      0.77s CPU      0.81s WALL (     204 calls)
     ffts         :      0.33s CPU      0.34s WALL (     388 calls)
     fftw         :     32.90s CPU     33.66s WALL (   98292 calls)
     interpolate  :      0.07s CPU      0.08s WALL (      15 calls)
 
     Parallel routines
     fft_scatt_xy :      3.27s CPU      3.34s WALL (   98884 calls)
     fft_scatt_yz :     16.33s CPU     16.75s WALL (   98884 calls)
 
     PWSCF        :   2m38.13s CPU   2m41.12s WALL

 
   This run was terminated on:  21:21:50  24Dec2021            

=------------------------------------------------------------------------------=
   JOB DONE.
=------------------------------------------------------------------------------=
