
     Program PWSCF v.6.4 starts on 24Dec2021 at 21:55:23 

     This program is part of the open-source Quantum ESPRESSO suite
     for quantum simulation of materials; please cite
         "P. Giannozzi et al., J. Phys.:Condens. Matter 21 395502 (2009);
         "P. Giannozzi et al., J. Phys.:Condens. Matter 29 465901 (2017);
          URL http://www.quantum-espresso.org", 
     in publications or presentations arising from this work. More details at
     http://www.quantum-espresso.org/quote

     Parallel version (MPI), running on    40 processors

     MPI processes distributed on     1 nodes
     R & G space division:  proc/nbgrp/npool/nimage =      40
     Waiting for input...
     Reading input from standard input
Warning: card    &IONS ignored
Warning: card      ION_DYNAMICS = 'BFGS' ignored
Warning: card   / ignored
Warning: card    &CELL ignored
Warning: card      CELL_DYNAMICS = 'BFGS', ignored
Warning: card    / ignored

     Current dimensions of program PWSCF are:
     Max number of different atomic species (ntypx) = 10
     Max number of k-points (npk) =  40000
     Max angular momentum in pseudopotentials (lmaxx) =  3

     Subspace diagonalization in iterative solution of the eigenvalue problem:
     one sub-group per band group will be used
     scalapack distributed-memory algorithm (size of sub-group:  4*  4 procs)

 
     Parallelization info
     --------------------
     sticks:   dense  smooth     PW     G-vecs:    dense   smooth      PW
     Min         241     121     32                18214     6439     909
     Max         242     122     33                18219     6442     915
     Sum        9679    4841   1317               728711   257635   36521
 


     bravais-lattice index     =            0
     lattice parameter (alat)  =      18.2941  a.u.
     unit-cell volume          =    6318.2500 (a.u.)^3
     number of atoms/cell      =           42
     number of atomic types    =            2
     number of electrons       =       252.00
     number of Kohn-Sham states=          151
     kinetic-energy cutoff     =      45.0000  Ry
     charge density cutoff     =     360.0000  Ry
     convergence threshold     =      1.0E-06
     mixing beta               =       0.7000
     number of iterations used =            8  local-TF  mixing
     Exchange-correlation      = SLA PW GGX GGC ( 1  4  2  2 0 0)

     celldm(1)=  18.294058  celldm(2)=   0.000000  celldm(3)=   0.000000
     celldm(4)=   0.000000  celldm(5)=   0.000000  celldm(6)=   0.000000

     crystal axes: (cart. coord. in units of alat)
               a(1) = (   1.000000   0.000000   0.000000 )  
               a(2) = (   0.066659   1.010188   0.000000 )  
               a(3) = (   0.000646   0.015627   1.021562 )  

     reciprocal axes: (cart. coord. in units 2 pi/alat)
               b(1) = (  1.000000 -0.065987  0.000377 )  
               b(2) = (  0.000000  0.989915 -0.015143 )  
               b(3) = (  0.000000  0.000000  0.978893 )  


     PseudoPot. # 1 for Mo read from file:
     ~/pseudo/Mo.pw91-n-van.UPF
     MD5 check sum: Not computed, couldn't open file
     Pseudo is Ultrasoft + core correction, Zval =  6.0
     Generated by new atomic code, or converted to UPF format
     Using radial grid of  965 points,  3 beta functions with: 
                l(1) =   1
                l(2) =   2
                l(3) =   2
     Q(r) pseudized with  8 coefficients,  rinner =    1.000   1.000   1.000
                                                       1.200   1.200

     PseudoPot. # 2 for S  read from file:
     ~/pseudo/S.pw91-van_ak.UPF
     MD5 check sum: Not computed, couldn't open file
     Pseudo is Ultrasoft, Zval =  6.0
     Generated by new atomic code, or converted to UPF format
     Using radial grid of  811 points,  6 beta functions with: 
                l(1) =   0
                l(2) =   0
                l(3) =   1
                l(4) =   1
                l(5) =   2
                l(6) =   2
     Q(r) pseudized with  8 coefficients,  rinner =    1.100   1.100   1.100
                                                       1.100   1.100

     atomic species   valence    mass     pseudopotential
        Mo             6.00    95.50000     Mo( 1.00)
        S              6.00    32.06500     S ( 1.00)

     No symmetry found



   Cartesian axes

     site n.     atom                  positions (alat units)
         1           Mo  tau(   1) = (   0.9200182   0.6179861   0.6313389  )
         2           Mo  tau(   2) = (   0.6424739   0.9052459   0.6245375  )
         3           Mo  tau(   3) = (   0.8781593   0.8339641   0.8708114  )
         4           Mo  tau(   4) = (   0.6462202   0.6212985   0.9238871  )
         5           Mo  tau(   5) = (   0.4301732   0.6168468   0.1230023  )
         6           Mo  tau(   6) = (   0.1948684   0.8377296   0.1689235  )
         7           Mo  tau(   7) = (   0.4377525   0.9048360   0.4178943  )
         8           Mo  tau(   8) = (   0.1412565   0.6146974   0.4150610  )
         9           Mo  tau(   9) = (   0.6371401   0.4032110   0.1292410  )
        10           Mo  tau(  10) = (   0.9011436   0.4229762   0.4104789  )
        11           Mo  tau(  11) = (   0.5854130   0.1206431   0.4192227  )
        12           Mo  tau(  12) = (   0.3759712   0.1247947   0.6238464  )
        13           Mo  tau(  13) = (   0.1338831   0.4001177   0.6212241  )
        14           Mo  tau(  14) = (   0.4305684   0.4170868   0.9283535  )
        15           S   tau(  15) = (   0.9012856   0.8783681   0.6387723  )
        16           S   tau(  16) = (   0.6637330   0.6473971   0.6579145  )
        17           S   tau(  17) = (   0.6789487   0.6458997   0.1468570  )
        18           S   tau(  18) = (   1.0336832   0.9321363   0.0037381  )
        19           S   tau(  19) = (   0.6816641   0.8943170   0.3817729  )
        20           S   tau(  20) = (   0.9011922   0.6599441   0.3861855  )
        21           S   tau(  21) = (   0.8957597   0.3719562   0.1593456  )
        22           S   tau(  22) = (   0.4280285   0.8777841   0.1511356  )
        23           S   tau(  23) = (   0.1686731   0.6025524   0.1486271  )
        24           S   tau(  24) = (   0.1692810   0.6439658   0.6610827  )
        25           S   tau(  25) = (   0.3967501   0.8950702   0.6682639  )
        26           S   tau(  26) = (   0.3194202   0.1768540   0.8801963  )
        27           S   tau(  27) = (   0.3983058   0.6530285   0.9009669  )
        28           S   tau(  28) = (   0.6504117   0.3755923   0.3953770  )
        29           S   tau(  29) = (   0.9098506   0.6032742   0.8897426  )
        30           S   tau(  30) = (   0.6711584   0.1477617   0.1791911  )
        31           S   tau(  31) = (   0.6226476   0.1349048   0.6539869  )
        32           S   tau(  32) = (   0.8848412   0.3692967   0.6442420  )
        33           S   tau(  33) = (   0.6649027   0.3753577   0.9106848  )
        34           S   tau(  34) = (   0.6489670   0.8869174   0.8902826  )
        35           S   tau(  35) = (   0.3923423   0.3880586   0.6563677  )
        36           S   tau(  36) = (   0.4041141   0.6428152   0.3843181  )
        37           S   tau(  37) = (   0.1155366   0.1392878   0.6154579  )
        38           S   tau(  38) = (   0.1743751   0.3380203   0.8755414  )
        39           S   tau(  39) = (   0.3988530   0.3657113   0.1426489  )
        40           S   tau(  40) = (   0.1373551   0.3706779   0.3799280  )
        41           S   tau(  41) = (   0.3502840   0.1317658   0.3772391  )
        42           S   tau(  42) = (   0.1715570   0.8811809   0.4017080  )

     number of k points=     8  Marzari-Vanderbilt smearing, width (Ry)=  0.0200
                       cart. coord. in units 2pi/alat
        k(    1) = (   0.0000000   0.0000000   0.0000000), wk =   0.2500000
        k(    2) = (   0.0000000   0.0000000  -0.4894466), wk =   0.2500000
        k(    3) = (   0.0000000  -0.4949576   0.0075717), wk =   0.2500000
        k(    4) = (   0.0000000  -0.4949576  -0.4818749), wk =   0.2500000
        k(    5) = (  -0.5000000   0.0329933  -0.0001884), wk =   0.2500000
        k(    6) = (  -0.5000000   0.0329933  -0.4896351), wk =   0.2500000
        k(    7) = (  -0.5000000  -0.4619643   0.0073833), wk =   0.2500000
        k(    8) = (  -0.5000000  -0.4619643  -0.4820634), wk =   0.2500000

     Dense  grid:   728711 G-vectors     FFT dimensions: ( 120, 120, 120)

     Smooth grid:   257635 G-vectors     FFT dimensions: (  80,  80,  80)

     Estimated max dynamical RAM per process >     131.47 MB

     Estimated total dynamical RAM >       5.14 GB

     Initial potential from superposition of free atoms

     starting charge  251.97792, renormalised to  252.00000
     Starting wfcs are  238 randomized atomic wfcs

     total cpu time spent up to now is        6.9 secs

     Self-consistent Calculation

     iteration #  1     ecut=    45.00 Ry     beta= 0.70
     Davidson diagonalization with overlap
     ethr =  1.00E-02,  avg # of iterations =  2.0

     total cpu time spent up to now is       18.1 secs

     total energy              =    -983.66299863 Ry
     Harris-Foulkes estimate   =    -987.11381491 Ry
     estimated scf accuracy    <       9.41705342 Ry

     iteration #  2     ecut=    45.00 Ry     beta= 0.70
     Davidson diagonalization with overlap
     ethr =  3.74E-03,  avg # of iterations =  2.0

     total cpu time spent up to now is       28.5 secs

     total energy              =    -984.97736919 Ry
     Harris-Foulkes estimate   =    -985.70961406 Ry
     estimated scf accuracy    <       3.69976426 Ry

     iteration #  3     ecut=    45.00 Ry     beta= 0.70
     Davidson diagonalization with overlap
     ethr =  1.47E-03,  avg # of iterations =  2.0

     total cpu time spent up to now is       37.1 secs

     total energy              =    -985.37984765 Ry
     Harris-Foulkes estimate   =    -985.48323986 Ry
     estimated scf accuracy    <       0.98576698 Ry

     iteration #  4     ecut=    45.00 Ry     beta= 0.70
     Davidson diagonalization with overlap
     ethr =  3.91E-04,  avg # of iterations =  1.0

     total cpu time spent up to now is       45.1 secs

     total energy              =    -985.37550548 Ry
     Harris-Foulkes estimate   =    -985.42520567 Ry
     estimated scf accuracy    <       0.25082959 Ry

     iteration #  5     ecut=    45.00 Ry     beta= 0.70
     Davidson diagonalization with overlap
     ethr =  9.95E-05,  avg # of iterations =  2.0

     total cpu time spent up to now is       53.9 secs

     total energy              =    -985.39718079 Ry
     Harris-Foulkes estimate   =    -985.40500374 Ry
     estimated scf accuracy    <       0.04931763 Ry

     iteration #  6     ecut=    45.00 Ry     beta= 0.70
     Davidson diagonalization with overlap
     ethr =  1.96E-05,  avg # of iterations =  7.2

     total cpu time spent up to now is       74.3 secs

     total energy              =    -985.40597165 Ry
     Harris-Foulkes estimate   =    -985.41166897 Ry
     estimated scf accuracy    <       0.06082279 Ry

     iteration #  7     ecut=    45.00 Ry     beta= 0.70
     Davidson diagonalization with overlap
     ethr =  1.96E-05,  avg # of iterations =  1.0

     total cpu time spent up to now is       82.3 secs

     total energy              =    -985.40676549 Ry
     Harris-Foulkes estimate   =    -985.40811427 Ry
     estimated scf accuracy    <       0.00598736 Ry

     iteration #  8     ecut=    45.00 Ry     beta= 0.70
     Davidson diagonalization with overlap
     ethr =  2.38E-06,  avg # of iterations =  4.8

     total cpu time spent up to now is       94.0 secs

     total energy              =    -985.40758212 Ry
     Harris-Foulkes estimate   =    -985.40771310 Ry
     estimated scf accuracy    <       0.00201413 Ry

     iteration #  9     ecut=    45.00 Ry     beta= 0.70
     Davidson diagonalization with overlap
     ethr =  7.99E-07,  avg # of iterations =  2.0

     total cpu time spent up to now is      102.7 secs

     total energy              =    -985.40765836 Ry
     Harris-Foulkes estimate   =    -985.40775372 Ry
     estimated scf accuracy    <       0.00106983 Ry

     iteration # 10     ecut=    45.00 Ry     beta= 0.70
     Davidson diagonalization with overlap
     ethr =  4.25E-07,  avg # of iterations =  1.0

     total cpu time spent up to now is      110.7 secs

     total energy              =    -985.40763721 Ry
     Harris-Foulkes estimate   =    -985.40771179 Ry
     estimated scf accuracy    <       0.00037958 Ry

     iteration # 11     ecut=    45.00 Ry     beta= 0.70
     Davidson diagonalization with overlap
     ethr =  1.51E-07,  avg # of iterations =  2.2

     total cpu time spent up to now is      119.5 secs

     total energy              =    -985.40766502 Ry
     Harris-Foulkes estimate   =    -985.40767161 Ry
     estimated scf accuracy    <       0.00003389 Ry

     iteration # 12     ecut=    45.00 Ry     beta= 0.70
     Davidson diagonalization with overlap
     ethr =  1.34E-08,  avg # of iterations =  5.6

     total cpu time spent up to now is      137.1 secs

     total energy              =    -985.40767773 Ry
     Harris-Foulkes estimate   =    -985.40767961 Ry
     estimated scf accuracy    <       0.00001598 Ry

     iteration # 13     ecut=    45.00 Ry     beta= 0.70
     Davidson diagonalization with overlap
     ethr =  6.34E-09,  avg # of iterations =  1.0

     total cpu time spent up to now is      145.2 secs

     total energy              =    -985.40767775 Ry
     Harris-Foulkes estimate   =    -985.40767867 Ry
     estimated scf accuracy    <       0.00000646 Ry

     iteration # 14     ecut=    45.00 Ry     beta= 0.70
     Davidson diagonalization with overlap
     ethr =  2.56E-09,  avg # of iterations =  3.0

     total cpu time spent up to now is      154.4 secs

     End of self-consistent calculation

          k = 0.0000 0.0000 0.0000 ( 32173 PWs)   bands (ev):

    -8.9636  -8.2253  -7.7447  -7.6196  -7.5862  -7.5189  -7.4238  -7.2768
    -7.1858  -7.1727  -7.1334  -7.1190  -7.0812  -7.0673  -6.9512  -6.9259
    -6.9143  -6.8795  -6.8366  -6.6337  -6.4451  -6.2088  -6.0634  -5.9893
    -5.7752  -5.6630  -5.4817  -4.9605  -0.0971  -0.0604  -0.0183   0.0231
     0.2475   0.3094   0.4144   0.5060   0.6644   0.7212   0.7360   0.7746
     0.8521   0.8544   0.9539   0.9953   1.1842   1.2450   1.3268   1.3657
     1.4203   1.4883   1.5316   1.5673   1.5937   1.6602   1.6840   1.6966
     1.7380   1.7578   1.8059   1.8441   1.8885   1.8997   1.9352   1.9679
     2.0082   2.0637   2.1237   2.1465   2.1607   2.2337   2.3127   2.3169
     2.3831   2.3972   2.4140   2.4500   2.4992   2.5369   2.5477   2.5823
     2.6410   2.7320   2.7486   2.7885   2.8234   2.8590   2.9426   3.0519
     3.0659   3.1034   3.2147   3.3268   3.3711   3.4203   3.6659   3.7161
     3.7477   3.8749   3.9254   4.0113   4.0407   4.1415   4.2843   4.3551
     4.4024   4.4270   4.4306   4.5205   4.5962   4.6477   4.7989   4.8339
     4.9337   5.0055   5.0828   5.1512   5.1970   5.2600   5.3345   5.3569
     5.4150   5.4345   5.6244   5.7273   5.7649   5.8211   5.8469   5.9457
     6.0159   6.0676   6.1896   6.2218   6.5189   6.6799   6.8010   6.9569
     7.1472   7.2560   7.3204   7.3605   7.4021   7.4668   7.5134   7.5285
     7.6477   7.6616   7.7502   7.7701   7.8539   7.8715   7.9177

          k = 0.0000 0.0000-0.4894 ( 32250 PWs)   bands (ev):

    -8.9573  -8.1463  -7.9464  -7.5781  -7.5645  -7.4064  -7.3612  -7.3304
    -7.2568  -7.2379  -7.1974  -7.1218  -7.0235  -7.0090  -6.9852  -6.9583
    -6.8950  -6.8588  -6.8086  -6.6280  -6.4542  -6.1852  -6.0702  -5.9793
    -5.7825  -5.6612  -5.4812  -4.9566  -0.0240   0.0258   0.1863   0.2612
     0.2858   0.2977   0.4037   0.4758   0.5493   0.6191   0.7364   0.7853
     0.8196   0.8847   0.9421   0.9819   1.0581   1.1508   1.2265   1.2565
     1.2784   1.3296   1.3856   1.3956   1.5009   1.6091   1.6142   1.6524
     1.7483   1.7601   1.8225   1.8579   1.9061   1.9370   1.9719   2.0273
     2.0502   2.1024   2.1202   2.1569   2.1993   2.2283   2.3083   2.3435
     2.3714   2.3907   2.4311   2.4728   2.5184   2.5860   2.6364   2.6449
     2.6774   2.7479   2.7520   2.8161   2.8321   2.8894   3.0231   3.0838
     3.1250   3.1804   3.2210   3.3050   3.3545   3.4388   3.5471   3.7740
     3.8136   3.9266   3.9620   4.0757   4.1335   4.1946   4.2475   4.3274
     4.3710   4.4167   4.5104   4.5361   4.7026   4.7467   4.7697   4.8465
     4.8859   4.9652   4.9931   5.0286   5.0983   5.1991   5.3287   5.3480
     5.4048   5.4463   5.5581   5.7319   5.7574   5.8338   5.8698   5.9611
     6.0047   6.0555   6.0889   6.2978   6.5975   6.6361   6.8309   6.9667
     7.0686   7.1434   7.3220   7.4438   7.4889   7.5270   7.5608   7.6561
     7.6992   7.7117   7.7933   7.8143   7.8711   7.9001   7.9298

          k = 0.0000-0.4950 0.0076 ( 32198 PWs)   bands (ev):

    -8.9580  -8.1773  -7.8462  -7.6464  -7.5882  -7.4695  -7.3831  -7.2821
    -7.2218  -7.1908  -7.1365  -7.1074  -7.0906  -7.0183  -6.9461  -6.9395
    -6.9186  -6.8831  -6.8595  -6.6214  -6.4425  -6.2070  -6.0567  -5.9782
    -5.7767  -5.6567  -5.4801  -4.9599  -0.0002   0.0354   0.0923   0.1919
     0.2764   0.3265   0.3566   0.4832   0.6038   0.7026   0.7347   0.7796
     0.8995   0.9113   0.9759   1.0100   1.0975   1.1425   1.1789   1.2397
     1.2921   1.3673   1.3867   1.4703   1.5210   1.5750   1.5868   1.6493
     1.6786   1.7536   1.7845   1.8249   1.8845   1.9145   1.9587   1.9952
     2.0356   2.0667   2.1309   2.1535   2.2214   2.2664   2.2947   2.3281
     2.3719   2.3993   2.4515   2.4803   2.5144   2.5585   2.5896   2.6146
     2.6295   2.7033   2.7291   2.8182   2.8574   3.0057   3.0226   3.1108
     3.1412   3.2050   3.2794   3.4084   3.4474   3.4851   3.6368   3.6569
     3.7532   3.8418   3.9149   3.9935   4.1054   4.1685   4.2608   4.2820
     4.3851   4.4371   4.4463   4.5475   4.6127   4.7067   4.7431   4.8190
     4.9058   5.0150   5.0402   5.1570   5.1763   5.2169   5.2822   5.3358
     5.3410   5.5162   5.5880   5.6695   5.7229   5.8460   5.8796   5.9846
     6.0010   6.0872   6.1813   6.2324   6.5250   6.6700   6.9089   7.0797
     7.1814   7.1915   7.2391   7.3395   7.4503   7.5112   7.5270   7.5812
     7.6679   7.7067   7.7499   7.7886   7.8789   7.9077   7.9336

          k = 0.0000-0.4950-0.4819 ( 32238 PWs)   bands (ev):

    -8.9538  -8.0697  -7.9346  -7.8003  -7.4995  -7.4475  -7.3257  -7.2786
    -7.2420  -7.2203  -7.1630  -7.1446  -7.0611  -7.0362  -6.9586  -6.9552
    -6.8943  -6.8712  -6.8272  -6.6230  -6.4457  -6.1800  -6.0659  -5.9619
    -5.7816  -5.6566  -5.4810  -4.9559   0.1173   0.1581   0.2447   0.2857
     0.3363   0.3783   0.3912   0.4260   0.5395   0.6236   0.7407   0.7790
     0.8122   0.8559   0.9627   0.9727   1.0037   1.0864   1.1108   1.1741
     1.2209   1.3074   1.3315   1.3686   1.4432   1.4893   1.5054   1.6435
     1.7110   1.7725   1.8328   1.8350   1.9269   1.9536   1.9961   2.0212
     2.0340   2.0711   2.1001   2.1296   2.2306   2.2349   2.2723   2.2988
     2.3564   2.3985   2.4374   2.4671   2.4898   2.5232   2.5654   2.5907
     2.6303   2.7114   2.7399   2.8413   2.9482   3.0047   3.0319   3.0934
     3.1995   3.2337   3.3273   3.3842   3.4961   3.6023   3.6818   3.7671
     3.8937   3.9232   3.9716   4.0529   4.1157   4.1856   4.2771   4.3208
     4.3489   4.4091   4.4523   4.4821   4.5866   4.7054   4.7608   4.8178
     4.8732   4.9368   4.9675   5.0645   5.1555   5.1840   5.2843   5.3567
     5.4539   5.4860   5.6171   5.6878   5.7740   5.8204   5.9061   5.9572
     5.9934   6.0622   6.1174   6.3063   6.6049   6.6704   6.8360   7.0184
     7.0901   7.1649   7.3124   7.3623   7.5149   7.5212   7.5604   7.5980
     7.7166   7.7622   7.8284   7.8527   7.8850   7.9172   7.9487

          k =-0.5000 0.0330-0.0002 ( 32176 PWs)   bands (ev):

    -8.9585  -8.0959  -8.0012  -7.5827  -7.4817  -7.4677  -7.4060  -7.3251
    -7.2810  -7.2215  -7.1912  -7.0650  -7.0447  -7.0141  -6.9832  -6.9517
    -6.8992  -6.8702  -6.8151  -6.6229  -6.4400  -6.2129  -6.0483  -5.9832
    -5.7793  -5.6715  -5.4714  -4.9593   0.0286   0.1324   0.2141   0.2340
     0.2804   0.2991   0.3118   0.4265   0.5508   0.5830   0.7261   0.7888
     0.8429   0.8743   0.9039   1.0340   1.1066   1.1384   1.2206   1.2626
     1.3175   1.3779   1.4314   1.5014   1.5163   1.5498   1.6350   1.6814
     1.7067   1.7421   1.7840   1.8132   1.8368   1.9027   1.9186   2.0447
     2.0546   2.0974   2.1334   2.1581   2.2252   2.2503   2.2940   2.3164
     2.3652   2.3985   2.4322   2.4812   2.5441   2.5520   2.5846   2.6296
     2.6903   2.7252   2.7582   2.7968   2.8215   2.9017   2.9984   3.0591
     3.0885   3.1913   3.2382   3.3196   3.3793   3.5062   3.6014   3.7268
     3.8082   3.9414   3.9996   4.0204   4.0363   4.1597   4.2784   4.3359
     4.3443   4.4236   4.4651   4.5415   4.6225   4.7062   4.7637   4.8117
     4.8743   4.9553   5.0402   5.1381   5.1643   5.2324   5.2741   5.3092
     5.4473   5.5366   5.5954   5.6588   5.7660   5.8099   5.8698   5.9404
     5.9919   6.1190   6.1338   6.3498   6.6101   6.6622   6.9148   6.9566
     7.0693   7.2016   7.2505   7.3429   7.4239   7.4500   7.6087   7.6680
     7.7146   7.7296   7.7791   7.8084   7.8457   7.8912   7.9405

          k =-0.5000 0.0330-0.4896 ( 32188 PWs)   bands (ev):

    -8.9538  -8.0327  -7.9770  -7.7550  -7.5310  -7.4206  -7.3653  -7.3476
    -7.2692  -7.2062  -7.1400  -7.1144  -7.0583  -7.0395  -6.9765  -6.9389
    -6.8885  -6.8700  -6.7901  -6.6160  -6.4554  -6.1944  -6.0417  -5.9718
    -5.7861  -5.6704  -5.4694  -4.9569   0.1340   0.2146   0.2225   0.2513
     0.3081   0.3968   0.4861   0.5018   0.5118   0.6073   0.6968   0.7734
     0.7885   0.8097   0.9519   1.0013   1.0434   1.1020   1.1570   1.2026
     1.2366   1.3006   1.3085   1.3941   1.4565   1.4770   1.5462   1.5755
     1.6757   1.7069   1.7718   1.8294   1.8971   1.9396   1.9861   1.9895
     2.0583   2.0844   2.1049   2.1384   2.1911   2.2414   2.2652   2.2948
     2.3418   2.3791   2.4137   2.4331   2.4807   2.5255   2.5617   2.6232
     2.6852   2.7116   2.7889   2.8958   2.9677   3.0210   3.0523   3.1434
     3.1665   3.2280   3.2401   3.4071   3.4745   3.5572   3.6753   3.6972
     3.7604   3.9029   3.9996   4.0478   4.1980   4.2185   4.2706   4.3204
     4.3756   4.4010   4.5157   4.5653   4.6257   4.6531   4.7350   4.8175
     4.9378   4.9433   4.9719   5.0495   5.1668   5.1956   5.2843   5.3733
     5.4684   5.5106   5.6011   5.6456   5.7047   5.8153   5.8750   5.9346
     6.0413   6.1345   6.1543   6.3528   6.4845   6.5148   6.8895   6.9127
     7.1925   7.2438   7.3472   7.4055   7.4420   7.4980   7.5831   7.6395
     7.7080   7.7394   7.7858   7.8037   7.8843   7.9167   7.9211

          k =-0.5000-0.4620 0.0074 ( 32208 PWs)   bands (ev):

    -8.9549  -8.0534  -7.9407  -7.7409  -7.6045  -7.4607  -7.3446  -7.2807
    -7.2141  -7.1994  -7.1318  -7.1161  -7.0783  -7.0366  -6.9798  -6.9525
    -6.8914  -6.8695  -6.8377  -6.6234  -6.4435  -6.2112  -6.0367  -5.9633
    -5.7826  -5.6566  -5.4715  -4.9606   0.0552   0.1783   0.2645   0.2933
     0.3649   0.3952   0.4213   0.4664   0.5708   0.6273   0.6901   0.7532
     0.8246   0.8773   0.9346   0.9581   1.0140   1.1051   1.1438   1.1697
     1.2363   1.3109   1.3370   1.3748   1.4576   1.5046   1.5466   1.6021
     1.6742   1.7600   1.7922   1.8517   1.8926   1.9260   1.9337   2.0291
     2.0743   2.0816   2.1023   2.1353   2.1493   2.2398   2.2631   2.3061
     2.3378   2.3974   2.4141   2.4559   2.5173   2.5438   2.5838   2.6310
     2.6702   2.7505   2.7986   2.8446   2.8960   2.9378   2.9795   3.0949
     3.2003   3.2555   3.3264   3.4266   3.4864   3.5464   3.6683   3.7346
     3.8227   3.8472   3.9493   4.0338   4.0933   4.1144   4.2506   4.2745
     4.3417   4.4504   4.5197   4.5672   4.6301   4.7171   4.7670   4.7973
     4.8794   4.9409   5.0275   5.1194   5.1450   5.2391   5.2975   5.3754
     5.4681   5.5300   5.5757   5.6375   5.7506   5.8073   5.8878   5.9201
     6.0329   6.1012   6.1476   6.3625   6.6124   6.6355   6.8048   6.9507
     7.1109   7.1703   7.1998   7.3481   7.4586   7.5298   7.6408   7.7032
     7.7440   7.7715   7.8021   7.8414   7.8935   7.9082   7.9206

          k =-0.5000-0.4620-0.4821 ( 32204 PWs)   bands (ev):

    -8.9517  -8.0119  -7.8734  -7.7396  -7.6909  -7.5507  -7.3810  -7.3561
    -7.1849  -7.1366  -7.1157  -7.0790  -7.0597  -7.0446  -7.0131  -6.9473
    -6.8961  -6.8708  -6.8128  -6.6196  -6.4473  -6.1848  -6.0289  -5.9541
    -5.7871  -5.6589  -5.4727  -4.9590   0.1174   0.2429   0.2635   0.2930
     0.3757   0.3866   0.5109   0.5463   0.6609   0.7061   0.7481   0.8103
     0.8908   0.9097   0.9739   0.9845   0.9953   1.0469   1.0694   1.0836
     1.1341   1.1606   1.2043   1.3165   1.3339   1.3951   1.4657   1.5527
     1.6413   1.6917   1.7133   1.8355   1.8902   1.9070   1.9380   1.9702
     2.0613   2.0923   2.1219   2.1477   2.1702   2.1950   2.2694   2.3029
     2.3436   2.3811   2.4144   2.4843   2.5206   2.5625   2.6009   2.6430
     2.6952   2.7414   2.7705   2.8273   2.8569   2.9586   3.0034   3.0704
     3.2183   3.2611   3.4469   3.5295   3.5572   3.6104   3.7131   3.7795
     3.8157   3.8898   3.9302   4.0940   4.2035   4.2384   4.2647   4.3038
     4.3627   4.3900   4.4322   4.5016   4.5864   4.7161   4.7959   4.8206
     4.8652   4.9687   5.0276   5.0725   5.1480   5.2142   5.2472   5.3979
     5.5219   5.5742   5.6405   5.7147   5.7381   5.8523   5.8662   5.8909
     6.0038   6.1216   6.1684   6.3668   6.4958   6.5481   6.7985   6.9918
     7.1590   7.1828   7.3399   7.4363   7.4839   7.5180   7.5721   7.6346
     7.6729   7.7646   7.7794   7.8231   7.8341   7.8826   7.9454

     the Fermi energy is     5.8519 ev

!    total energy              =    -985.40767768 Ry
     Harris-Foulkes estimate   =    -985.40767834 Ry
     estimated scf accuracy    <       0.00000086 Ry

     The total energy is the sum of the following terms:

     one-electron contribution =    -154.15633901 Ry
     hartree contribution      =     213.56387230 Ry
     xc contribution           =    -389.04322820 Ry
     ewald contribution        =    -655.76787517 Ry
     smearing contrib. (-TS)   =      -0.00410760 Ry

     convergence has been achieved in  14 iterations

     Forces acting on atoms (cartesian axes, Ry/au):

     atom    1 type  1   force =     0.01960289    0.01279416    0.02279982
     atom    2 type  1   force =    -0.00217361   -0.00205582    0.01929830
     atom    3 type  1   force =     0.00786644    0.01152825   -0.01288842
     atom    4 type  1   force =     0.01116770    0.03937891   -0.00054073
     atom    5 type  1   force =    -0.01234878    0.00308349    0.01783831
     atom    6 type  1   force =    -0.00115477   -0.03118495    0.00487239
     atom    7 type  1   force =    -0.00541873   -0.03367770    0.00606433
     atom    8 type  1   force =     0.01697007    0.02101674   -0.01111418
     atom    9 type  1   force =     0.02665484    0.01121550    0.01245544
     atom   10 type  1   force =    -0.00996958    0.00465789   -0.06855794
     atom   11 type  1   force =     0.01132874    0.00928116   -0.08676497
     atom   12 type  1   force =    -0.07003587    0.02817840    0.00858372
     atom   13 type  1   force =     0.01075574   -0.02998892   -0.00254409
     atom   14 type  1   force =    -0.04708742   -0.02450061   -0.04134854
     atom   15 type  2   force =     0.02971565    0.00909486   -0.00134581
     atom   16 type  2   force =    -0.00587532   -0.00678194    0.00522815
     atom   17 type  2   force =    -0.00954811   -0.00836617   -0.00240703
     atom   18 type  2   force =     0.00426349   -0.02434238    0.00466553
     atom   19 type  2   force =     0.00684311   -0.03909445   -0.01362993
     atom   20 type  2   force =    -0.01989586    0.00233581   -0.00831684
     atom   21 type  2   force =    -0.01409103   -0.01321764    0.02779055
     atom   22 type  2   force =     0.00489801    0.01111200   -0.01838763
     atom   23 type  2   force =    -0.00802522    0.01212929    0.00245649
     atom   24 type  2   force =    -0.00918808   -0.00317909   -0.00486541
     atom   25 type  2   force =     0.01262220   -0.01341684   -0.02254291
     atom   26 type  2   force =     0.00798261    0.01284219    0.01296336
     atom   27 type  2   force =    -0.00210978    0.01755700   -0.01921486
     atom   28 type  2   force =     0.00208511   -0.01066754   -0.00167453
     atom   29 type  2   force =    -0.01048490   -0.02009840    0.02436744
     atom   30 type  2   force =    -0.00403146    0.00278565    0.02120535
     atom   31 type  2   force =     0.01311257    0.02345697    0.05054477
     atom   32 type  2   force =     0.00052721    0.00696330    0.03306751
     atom   33 type  2   force =     0.02484074   -0.02912454   -0.03135327
     atom   34 type  2   force =    -0.00280537   -0.00386813    0.02362193
     atom   35 type  2   force =    -0.00398854   -0.01221075   -0.00385468
     atom   36 type  2   force =    -0.00688845    0.00048374    0.00744286
     atom   37 type  2   force =     0.03284869    0.01327566    0.00154636
     atom   38 type  2   force =     0.01392341   -0.00064803    0.02645848
     atom   39 type  2   force =    -0.02462631    0.00054160    0.03136090
     atom   40 type  2   force =     0.03160271   -0.00579783   -0.00627748
     atom   41 type  2   force =    -0.00807724    0.04619606   -0.00609248
     atom   42 type  2   force =    -0.01178748    0.01231311   -0.00091027

     Total force =     0.238052     Total SCF correction =     0.001601
 
     init_run     :      6.05s CPU      6.18s WALL (       1 calls)
     electrons    :    144.71s CPU    147.48s WALL (       1 calls)
     forces       :      3.47s CPU      3.53s WALL (       1 calls)

     Called by init_run:
     wfcinit      :      4.30s CPU      4.37s WALL (       1 calls)
     potinit      :      0.47s CPU      0.48s WALL (       1 calls)
     hinit0       :      0.66s CPU      0.66s WALL (       1 calls)

     Called by electrons:
     c_bands      :    121.26s CPU    122.81s WALL (      14 calls)
     sum_band     :     18.37s CPU     19.26s WALL (      14 calls)
     v_of_rho     :      0.93s CPU      0.98s WALL (      15 calls)
     newd         :      3.50s CPU      3.77s WALL (      15 calls)
     mix_rho      :      0.79s CPU      0.81s WALL (      14 calls)

     Called by c_bands:
     init_us_2    :      2.37s CPU      2.38s WALL (     240 calls)
     cegterg      :    112.39s CPU    113.89s WALL (     112 calls)

     Called by sum_band:
     sum_band:bec :      0.25s CPU      0.25s WALL (     112 calls)
     addusdens    :      4.84s CPU      5.43s WALL (      14 calls)

     Called by *egterg:
     h_psi        :     57.11s CPU     58.09s WALL (     415 calls)
     s_psi        :     12.56s CPU     12.57s WALL (     415 calls)
     g_psi        :      0.25s CPU      0.26s WALL (     295 calls)
     cdiaghg      :     24.38s CPU     24.83s WALL (     407 calls)

     Called by h_psi:
     h_psi:pot    :     56.57s CPU     57.54s WALL (     415 calls)
     h_psi:calbec :     13.83s CPU     14.09s WALL (     415 calls)
     vloc_psi     :     30.28s CPU     30.97s WALL (     415 calls)
     add_vuspsi   :     12.45s CPU     12.48s WALL (     415 calls)

     General routines
     calbec       :     20.83s CPU     21.21s WALL (     559 calls)
     fft          :      0.73s CPU      0.77s WALL (     204 calls)
     ffts         :      0.34s CPU      0.34s WALL (     390 calls)
     fftw         :     33.38s CPU     34.15s WALL (   99604 calls)
     interpolate  :      0.07s CPU      0.08s WALL (      15 calls)
 
     Parallel routines
     fft_scatt_xy :      3.33s CPU      3.40s WALL (  100198 calls)
     fft_scatt_yz :     16.45s CPU     16.87s WALL (  100198 calls)
 
     PWSCF        :   2m34.96s CPU   2m38.03s WALL

 
   This run was terminated on:  21:58: 1  24Dec2021            

=------------------------------------------------------------------------------=
   JOB DONE.
=------------------------------------------------------------------------------=
