
     Program PWSCF v.6.4 starts on 24Dec2021 at 20:53:15 

     This program is part of the open-source Quantum ESPRESSO suite
     for quantum simulation of materials; please cite
         "P. Giannozzi et al., J. Phys.:Condens. Matter 21 395502 (2009);
         "P. Giannozzi et al., J. Phys.:Condens. Matter 29 465901 (2017);
          URL http://www.quantum-espresso.org", 
     in publications or presentations arising from this work. More details at
     http://www.quantum-espresso.org/quote

     Parallel version (MPI), running on    40 processors

     MPI processes distributed on     1 nodes
     R & G space division:  proc/nbgrp/npool/nimage =      40
     Waiting for input...
     Reading input from standard input
Warning: card    &IONS ignored
Warning: card      ION_DYNAMICS = 'BFGS' ignored
Warning: card   / ignored
Warning: card    &CELL ignored
Warning: card      CELL_DYNAMICS = 'BFGS', ignored
Warning: card    / ignored

     Current dimensions of program PWSCF are:
     Max number of different atomic species (ntypx) = 10
     Max number of k-points (npk) =  40000
     Max angular momentum in pseudopotentials (lmaxx) =  3

     Subspace diagonalization in iterative solution of the eigenvalue problem:
     one sub-group per band group will be used
     scalapack distributed-memory algorithm (size of sub-group:  4*  4 procs)

 
     Parallelization info
     --------------------
     sticks:   dense  smooth     PW     G-vecs:    dense   smooth      PW
     Min         243     121     33                18659     6595     941
     Max         244     122     34                18662     6600     944
     Sum        9739    4871   1329               746411   263919   37713
 


     bravais-lattice index     =            0
     lattice parameter (alat)  =      17.9424  a.u.
     unit-cell volume          =    6471.3568 (a.u.)^3
     number of atoms/cell      =           42
     number of atomic types    =            2
     number of electrons       =       252.00
     number of Kohn-Sham states=          151
     kinetic-energy cutoff     =      45.0000  Ry
     charge density cutoff     =     360.0000  Ry
     convergence threshold     =      1.0E-06
     mixing beta               =       0.7000
     number of iterations used =            8  local-TF  mixing
     Exchange-correlation      = SLA PW GGX GGC ( 1  4  2  2 0 0)

     celldm(1)=  17.942390  celldm(2)=   0.000000  celldm(3)=   0.000000
     celldm(4)=   0.000000  celldm(5)=   0.000000  celldm(6)=   0.000000

     crystal axes: (cart. coord. in units of alat)
               a(1) = (   1.000000   0.000000   0.000000 )  
               a(2) = (  -0.036816   1.055024   0.000000 )  
               a(3) = (  -0.001736  -0.098428   1.061921 )  

     reciprocal axes: (cart. coord. in units 2 pi/alat)
               b(1) = (  1.000000  0.034896  0.004869 )  
               b(2) = (  0.000000  0.947845  0.087855 )  
               b(3) = (  0.000000  0.000000  0.941690 )  


     PseudoPot. # 1 for Mo read from file:
     ~/pseudo/Mo.pw91-n-van.UPF
     MD5 check sum: Not computed, couldn't open file
     Pseudo is Ultrasoft + core correction, Zval =  6.0
     Generated by new atomic code, or converted to UPF format
     Using radial grid of  965 points,  3 beta functions with: 
                l(1) =   1
                l(2) =   2
                l(3) =   2
     Q(r) pseudized with  8 coefficients,  rinner =    1.000   1.000   1.000
                                                       1.200   1.200

     PseudoPot. # 2 for S  read from file:
     ~/pseudo/S.pw91-van_ak.UPF
     MD5 check sum: Not computed, couldn't open file
     Pseudo is Ultrasoft, Zval =  6.0
     Generated by new atomic code, or converted to UPF format
     Using radial grid of  811 points,  6 beta functions with: 
                l(1) =   0
                l(2) =   0
                l(3) =   1
                l(4) =   1
                l(5) =   2
                l(6) =   2
     Q(r) pseudized with  8 coefficients,  rinner =    1.100   1.100   1.100
                                                       1.100   1.100

     atomic species   valence    mass     pseudopotential
        Mo             6.00    95.50000     Mo( 1.00)
        S              6.00    32.06500     S ( 1.00)

     No symmetry found



   Cartesian axes

     site n.     atom                  positions (alat units)
         1           Mo  tau(   1) = (   0.1215471   0.6209769   0.3923391  )
         2           Mo  tau(   2) = (   0.3361416   0.8456082   0.4034503  )
         3           Mo  tau(   3) = (   0.1072104   0.8561789   0.1750061  )
         4           Mo  tau(   4) = (   0.3271392   0.6605662   0.1595701  )
         5           Mo  tau(   5) = (   0.6142842   0.5948634   0.9206447  )
         6           Mo  tau(   6) = (   0.8260453   0.8286680   0.9388932  )
         7           Mo  tau(   7) = (   0.6178289   0.8489433   0.7050460  )
         8           Mo  tau(   8) = (   0.8193278   0.6229373   0.6940567  )
         9           Mo  tau(   9) = (   0.3945544   0.3161336   0.9014005  )
        10           Mo  tau(  10) = (   0.1064379   0.3759517   0.5883283  )
        11           Mo  tau(  11) = (   0.3858389   0.0890099   0.6829067  )
        12           Mo  tau(  12) = (   0.5935325   0.0087207   0.4953184  )
        13           Mo  tau(  13) = (   0.8772925   0.3838744   0.4199417  )
        14           Mo  tau(  14) = (   0.5642318   0.4691735   0.0686955  )
        15           S   tau(  15) = (   0.0842039   0.8798322   0.4323115  )
        16           S   tau(  16) = (   0.3734421   0.5876311   0.3949705  )
        17           S   tau(  17) = (   0.3510809   0.5674432   0.9497350  )
        18           S   tau(  18) = (   0.0958670   0.8328092   0.9775872  )
        19           S   tau(  19) = (   0.3422384   0.8738984   0.6684507  )
        20           S   tau(  20) = (   0.1026419   0.6094949   0.6489011  )
        21           S   tau(  21) = (   0.1155396   0.1311984   0.6632850  )
        22           S   tau(  22) = (   0.5749430   0.8562833   0.9591133  )
        23           S   tau(  23) = (   0.8679818   0.5761936   0.9376246  )
        24           S   tau(  24) = (   0.8539150   0.6282162   0.4230053  )
        25           S   tau(  25) = (   0.5976849   0.8360775   0.4369167  )
        26           S   tau(  26) = (   0.8597212   0.9206899   0.1517042  )
        27           S   tau(  27) = (   0.5924066   0.6972655   0.1281546  )
        28           S   tau(  28) = (   0.3580508   0.3352302   0.6552931  )
        29           S   tau(  29) = (   0.0823812   0.6131833   0.1365187  )
        30           S   tau(  30) = (   0.3362540   0.0816369   0.9370412  )
        31           S   tau(  31) = (   0.3705662   0.0640289   0.4303303  )
        32           S   tau(  32) = (   0.1055495   0.3598133   0.3541060  )
        33           S   tau(  33) = (   0.3378716   0.4114254   0.0890128  )
        34           S   tau(  34) = (   0.3480011   0.9253097   0.1600459  )
        35           S   tau(  35) = (   0.7090147   0.3656960   0.2310186  )
        36           S   tau(  36) = (   0.5692503   0.6007505   0.6804155  )
        37           S   tau(  37) = (   0.7970544   0.1271819   0.4154738  )
        38           S   tau(  38) = (   0.8988845   0.0268620   1.0092003  )
        39           S   tau(  39) = (   0.6306554   0.3390066   0.9053408  )
        40           S   tau(  40) = (   0.8701423   0.3726939   0.6673108  )
        41           S   tau(  41) = (   0.6329489   0.0538475   0.7240336  )
        42           S   tau(  42) = (   0.8637081   0.8756289   0.7021603  )

     number of k points=     8  Marzari-Vanderbilt smearing, width (Ry)=  0.0200
                       cart. coord. in units 2pi/alat
        k(    1) = (   0.0000000   0.0000000   0.0000000), wk =   0.2500000
        k(    2) = (   0.0000000   0.0000000  -0.4708450), wk =   0.2500000
        k(    3) = (   0.0000000  -0.4739227  -0.0439274), wk =   0.2500000
        k(    4) = (   0.0000000  -0.4739227  -0.5147724), wk =   0.2500000
        k(    5) = (  -0.5000000  -0.0174480  -0.0024346), wk =   0.2500000
        k(    6) = (  -0.5000000  -0.0174480  -0.4732796), wk =   0.2500000
        k(    7) = (  -0.5000000  -0.4913707  -0.0463620), wk =   0.2500000
        k(    8) = (  -0.5000000  -0.4913707  -0.5172070), wk =   0.2500000

     Dense  grid:   746411 G-vectors     FFT dimensions: ( 120, 120, 120)

     Smooth grid:   263919 G-vectors     FFT dimensions: (  80,  81,  81)

     Estimated max dynamical RAM per process >     134.18 MB

     Estimated total dynamical RAM >       5.24 GB

     Initial potential from superposition of free atoms

     starting charge  251.97792, renormalised to  252.00000
     Starting wfcs are  238 randomized atomic wfcs

     total cpu time spent up to now is        8.0 secs

     Self-consistent Calculation

     iteration #  1     ecut=    45.00 Ry     beta= 0.70
     Davidson diagonalization with overlap
     ethr =  1.00E-02,  avg # of iterations =  2.0

     total cpu time spent up to now is       21.7 secs

     total energy              =    -983.24623579 Ry
     Harris-Foulkes estimate   =    -986.80322983 Ry
     estimated scf accuracy    <       9.77709167 Ry

     iteration #  2     ecut=    45.00 Ry     beta= 0.70
     Davidson diagonalization with overlap
     ethr =  3.88E-03,  avg # of iterations =  2.0

     total cpu time spent up to now is       34.5 secs

     total energy              =    -984.69831132 Ry
     Harris-Foulkes estimate   =    -985.52665662 Ry
     estimated scf accuracy    <       5.05244497 Ry

     iteration #  3     ecut=    45.00 Ry     beta= 0.70
     Davidson diagonalization with overlap
     ethr =  2.00E-03,  avg # of iterations =  1.0

     total cpu time spent up to now is       44.5 secs

     total energy              =    -985.05487250 Ry
     Harris-Foulkes estimate   =    -985.13115710 Ry
     estimated scf accuracy    <       0.51067365 Ry

     iteration #  4     ecut=    45.00 Ry     beta= 0.70
     Davidson diagonalization with overlap
     ethr =  2.03E-04,  avg # of iterations =  2.8

     total cpu time spent up to now is       56.1 secs

     total energy              =    -985.08529788 Ry
     Harris-Foulkes estimate   =    -985.11644027 Ry
     estimated scf accuracy    <       0.09803678 Ry

     iteration #  5     ecut=    45.00 Ry     beta= 0.70
     Davidson diagonalization with overlap
     ethr =  3.89E-05,  avg # of iterations =  6.9

     total cpu time spent up to now is       76.4 secs

     total energy              =    -985.10546359 Ry
     Harris-Foulkes estimate   =    -985.11464149 Ry
     estimated scf accuracy    <       0.06525229 Ry

     iteration #  6     ecut=    45.00 Ry     beta= 0.70
     Davidson diagonalization with overlap
     ethr =  2.59E-05,  avg # of iterations =  3.0

     total cpu time spent up to now is       87.8 secs

     total energy              =    -985.10886616 Ry
     Harris-Foulkes estimate   =    -985.10989010 Ry
     estimated scf accuracy    <       0.00651716 Ry

     iteration #  7     ecut=    45.00 Ry     beta= 0.70
     Davidson diagonalization with overlap
     ethr =  2.59E-06,  avg # of iterations = 11.8

     total cpu time spent up to now is      110.8 secs

     total energy              =    -985.10965694 Ry
     Harris-Foulkes estimate   =    -985.11006625 Ry
     estimated scf accuracy    <       0.00323455 Ry

     iteration #  8     ecut=    45.00 Ry     beta= 0.70
     Davidson diagonalization with overlap
     ethr =  1.28E-06,  avg # of iterations =  1.0

     total cpu time spent up to now is      120.7 secs

     total energy              =    -985.10975368 Ry
     Harris-Foulkes estimate   =    -985.10985664 Ry
     estimated scf accuracy    <       0.00069593 Ry

     iteration #  9     ecut=    45.00 Ry     beta= 0.70
     Davidson diagonalization with overlap
     ethr =  2.76E-07,  avg # of iterations =  4.0

     total cpu time spent up to now is      137.2 secs

     total energy              =    -985.10985228 Ry
     Harris-Foulkes estimate   =    -985.10997154 Ry
     estimated scf accuracy    <       0.00099406 Ry

     iteration # 10     ecut=    45.00 Ry     beta= 0.70
     Davidson diagonalization with overlap
     ethr =  2.76E-07,  avg # of iterations =  1.0

     total cpu time spent up to now is      147.2 secs

     total energy              =    -985.10984587 Ry
     Harris-Foulkes estimate   =    -985.10989350 Ry
     estimated scf accuracy    <       0.00024875 Ry

     iteration # 11     ecut=    45.00 Ry     beta= 0.70
     Davidson diagonalization with overlap
     ethr =  9.87E-08,  avg # of iterations =  3.9

     total cpu time spent up to now is      160.6 secs

     total energy              =    -985.10988386 Ry
     Harris-Foulkes estimate   =    -985.10989440 Ry
     estimated scf accuracy    <       0.00008856 Ry

     iteration # 12     ecut=    45.00 Ry     beta= 0.70
     Davidson diagonalization with overlap
     ethr =  3.51E-08,  avg # of iterations =  1.0

     total cpu time spent up to now is      170.5 secs

     total energy              =    -985.10988675 Ry
     Harris-Foulkes estimate   =    -985.10988982 Ry
     estimated scf accuracy    <       0.00002246 Ry

     iteration # 13     ecut=    45.00 Ry     beta= 0.70
     Davidson diagonalization with overlap
     ethr =  8.91E-09,  avg # of iterations =  3.8

     total cpu time spent up to now is      182.8 secs

     total energy              =    -985.10988931 Ry
     Harris-Foulkes estimate   =    -985.10988971 Ry
     estimated scf accuracy    <       0.00000407 Ry

     iteration # 14     ecut=    45.00 Ry     beta= 0.70
     Davidson diagonalization with overlap
     ethr =  1.61E-09,  avg # of iterations =  3.6

     total cpu time spent up to now is      196.3 secs

     total energy              =    -985.10988979 Ry
     Harris-Foulkes estimate   =    -985.10989012 Ry
     estimated scf accuracy    <       0.00000294 Ry

     iteration # 15     ecut=    45.00 Ry     beta= 0.70
     Davidson diagonalization with overlap
     ethr =  1.17E-09,  avg # of iterations =  1.0

     total cpu time spent up to now is      206.2 secs

     total energy              =    -985.10988972 Ry
     Harris-Foulkes estimate   =    -985.10988993 Ry
     estimated scf accuracy    <       0.00000104 Ry

     iteration # 16     ecut=    45.00 Ry     beta= 0.70
     Davidson diagonalization with overlap
     ethr =  4.13E-10,  avg # of iterations =  3.2

     total cpu time spent up to now is      218.9 secs

     End of self-consistent calculation

          k = 0.0000 0.0000 0.0000 ( 32937 PWs)   bands (ev):

    -8.6750  -8.2672  -8.0848  -8.0098  -7.8567  -7.7476  -7.6949  -7.6537
    -7.5198  -7.4785  -7.4311  -7.3319  -7.3244  -7.2940  -7.2365  -7.1802
    -7.1453  -7.0699  -7.0182  -6.8940  -6.7181  -6.4895  -6.4441  -6.3903
    -6.2868  -5.9578  -5.7552  -5.5136  -0.5149  -0.4201  -0.3699  -0.3097
    -0.0751   0.0120   0.0969   0.1592   0.2168   0.3184   0.3689   0.4097
     0.4904   0.5779   0.6610   0.7230   0.8015   0.8471   0.8740   0.9530
     1.0052   1.0657   1.0988   1.1539   1.2040   1.2354   1.3065   1.3601
     1.4025   1.4373   1.4753   1.5151   1.5582   1.5919   1.6459   1.6668
     1.7375   1.7476   1.8098   1.9054   1.9239   1.9525   2.0083   2.0447
     2.0716   2.1229   2.1921   2.2361   2.2417   2.3399   2.3616   2.4277
     2.4597   2.5142   2.6013   2.6517   2.6831   2.7573   2.8450   2.8835
     2.9122   2.9766   2.9959   3.0491   3.1564   3.1785   3.2478   3.4351
     3.4580   3.5618   3.6037   3.6499   3.7459   3.8173   3.8489   3.9624
     3.9989   4.1546   4.2004   4.2152   4.2961   4.3594   4.4335   4.4766
     4.5382   4.6561   4.6785   4.7787   4.8233   4.8949   4.9622   4.9721
     5.1512   5.2253   5.2412   5.3244   5.3739   5.4019   5.5101   5.6302
     5.7122   5.7642   5.8510   6.0845   6.1828   6.2972   6.4749   6.5543
     6.6358   6.7115   6.7349   6.8766   6.9588   6.9955   7.0707   7.1305
     7.2112   7.2829   7.3515   7.4122   7.4252   7.4692   7.5558

          k = 0.0000 0.0000-0.4708 ( 33016 PWs)   bands (ev):

    -8.5480  -8.4621  -8.0715  -7.9413  -7.8651  -7.7660  -7.6930  -7.6260
    -7.5733  -7.5452  -7.3973  -7.3659  -7.3163  -7.2719  -7.2238  -7.1571
    -7.1049  -7.0689  -7.0209  -6.8892  -6.7179  -6.5014  -6.4260  -6.3872
    -6.2956  -5.9556  -5.7558  -5.5129  -0.4729  -0.3382  -0.2795  -0.2332
    -0.0867  -0.0614   0.0791   0.1018   0.2837   0.3305   0.3732   0.4603
     0.4819   0.5348   0.5759   0.6498   0.6882   0.7341   0.8319   0.9239
     0.9499   1.0179   1.0475   1.1078   1.2069   1.2453   1.2526   1.2801
     1.3168   1.4655   1.4967   1.5397   1.5664   1.6092   1.6830   1.7089
     1.7274   1.7826   1.8457   1.8720   1.9267   1.9409   2.0039   2.0561
     2.1420   2.1668   2.2274   2.2514   2.3203   2.3319   2.4110   2.4536
     2.4905   2.5745   2.6015   2.6675   2.7174   2.7387   2.8018   2.9015
     2.9476   3.0127   3.0626   3.0988   3.2112   3.2296   3.2574   3.3219
     3.5079   3.5803   3.6414   3.6949   3.7276   3.7832   3.9258   4.0003
     4.0249   4.0501   4.1090   4.2059   4.3110   4.3599   4.4392   4.4812
     4.5521   4.5826   4.6917   4.7492   4.7722   4.8751   4.9089   5.1015
     5.1657   5.1989   5.2499   5.2599   5.3737   5.4357   5.5302   5.6372
     5.6669   5.7720   5.9007   5.9494   6.0928   6.2624   6.4823   6.5024
     6.6311   6.7003   6.7818   6.8828   6.9830   7.0682   7.1177   7.1434
     7.2205   7.2659   7.3664   7.4021   7.4801   7.5380   7.5683

          k = 0.0000-0.4739-0.0439 ( 32996 PWs)   bands (ev):

    -8.6138  -8.2775  -8.2097  -7.9992  -7.8254  -7.7829  -7.7199  -7.5755
    -7.4982  -7.4646  -7.4360  -7.3491  -7.3296  -7.3261  -7.2402  -7.1557
    -7.1234  -7.0599  -7.0416  -6.8945  -6.7175  -6.4947  -6.4252  -6.3853
    -6.2994  -5.9537  -5.7520  -5.5139  -0.4141  -0.3561  -0.2304  -0.1958
    -0.0986  -0.0019   0.1032   0.1722   0.1835   0.2438   0.3813   0.4220
     0.4612   0.5408   0.6591   0.6756   0.6916   0.8404   0.8623   0.8912
     0.9172   0.9767   1.0056   1.0742   1.1429   1.1947   1.2214   1.2498
     1.3437   1.3892   1.4474   1.4817   1.5441   1.5734   1.6649   1.6860
     1.7613   1.7992   1.8909   1.9057   1.9813   2.0134   2.0318   2.0849
     2.1278   2.1851   2.1889   2.2829   2.3210   2.3324   2.4264   2.4502
     2.4938   2.5387   2.5771   2.6132   2.6928   2.7827   2.8233   2.8633
     2.9585   2.9784   3.0612   3.1080   3.1434   3.2274   3.3034   3.3717
     3.4826   3.5350   3.5745   3.6339   3.8315   3.8948   3.9222   3.9952
     4.0524   4.0769   4.1144   4.1947   4.3120   4.3683   4.4757   4.5011
     4.5371   4.6566   4.7125   4.7348   4.7811   4.8781   4.9232   5.0161
     5.1615   5.2732   5.2774   5.3338   5.3665   5.4242   5.5674   5.6438
     5.6809   5.7389   5.7815   6.0618   6.1342   6.2543   6.3529   6.4792
     6.5942   6.7067   6.7833   6.8056   6.9107   6.9725   7.0438   7.1515
     7.2485   7.2945   7.3404   7.4334   7.4882   7.4998   7.5311

          k = 0.0000-0.4739-0.5148 ( 32984 PWs)   bands (ev):

    -8.4674  -8.4608  -8.1819  -7.9765  -7.8756  -7.7884  -7.7203  -7.5731
    -7.5370  -7.4959  -7.4066  -7.3610  -7.3011  -7.2783  -7.2603  -7.1365
    -7.1126  -7.0721  -7.0344  -6.8841  -6.7193  -6.5007  -6.4092  -6.3918
    -6.2899  -5.9516  -5.7533  -5.5136  -0.3433  -0.2923  -0.2605  -0.1794
    -0.0784  -0.0038   0.0676   0.1499   0.2561   0.3448   0.3486   0.3949
     0.4298   0.5490   0.6090   0.6174   0.6209   0.7124   0.8135   0.8295
     0.8657   0.9277   1.0153   1.0562   1.1285   1.1943   1.2463   1.3183
     1.3516   1.3814   1.4780   1.5128   1.5576   1.6064   1.6724   1.7159
     1.7672   1.8311   1.8562   1.8923   1.9345   1.9807   2.0145   2.0448
     2.1032   2.1550   2.1880   2.2202   2.2770   2.3325   2.4426   2.4705
     2.5157   2.6052   2.6278   2.6432   2.7045   2.7494   2.8225   2.9229
     2.9654   3.0297   3.1221   3.1777   3.1863   3.2547   3.2990   3.3460
     3.5404   3.6064   3.6231   3.6697   3.8243   3.8848   3.9424   3.9993
     4.0341   4.0887   4.1830   4.2262   4.2593   4.3356   4.4357   4.5298
     4.5887   4.5938   4.6972   4.7009   4.7850   4.8636   4.9024   4.9770
     5.0935   5.1973   5.2773   5.3262   5.4736   5.5084   5.5536   5.6362
     5.6994   5.7390   5.7723   5.9451   6.1100   6.1918   6.3629   6.5212
     6.5738   6.7275   6.7926   6.8269   6.9093   7.0173   7.0575   7.1303
     7.1810   7.3055   7.3237   7.4623   7.5085   7.5274   7.5557

          k =-0.5000-0.0174-0.0024 ( 33046 PWs)   bands (ev):

    -8.5534  -8.4360  -8.0737  -7.9329  -7.9088  -7.7215  -7.6964  -7.6333
    -7.5740  -7.4936  -7.4428  -7.3889  -7.3357  -7.2971  -7.1911  -7.1481
    -7.1019  -7.0742  -7.0352  -6.8856  -6.7355  -6.4952  -6.4255  -6.3910
    -6.2760  -5.9560  -5.7569  -5.5113  -0.3604  -0.3144  -0.2486  -0.2020
    -0.0489   0.0077   0.0785   0.1357   0.2570   0.3235   0.3927   0.4622
     0.4904   0.5525   0.6146   0.6421   0.6787   0.7595   0.8314   0.8833
     0.9269   0.9669   1.0144   1.0813   1.1116   1.1989   1.2302   1.3437
     1.3923   1.4471   1.4847   1.5311   1.5752   1.6236   1.6400   1.6672
     1.7134   1.7512   1.8601   1.9097   1.9607   1.9874   2.0073   2.0286
     2.1093   2.1247   2.1816   2.2114   2.2452   2.3021   2.3757   2.4389
     2.4556   2.5073   2.5733   2.6277   2.7120   2.7866   2.8083   2.8699
     2.9345   2.9801   3.0644   3.1406   3.1947   3.2465   3.2917   3.3774
     3.4346   3.5085   3.5949   3.6210   3.7155   3.8123   3.8860   3.8975
     3.9566   4.1206   4.1905   4.2547   4.2869   4.3773   4.4293   4.4791
     4.5644   4.6794   4.7393   4.7856   4.8215   4.9131   5.0097   5.0687
     5.1630   5.2304   5.2389   5.3278   5.3988   5.4405   5.5269   5.5941
     5.6706   5.8072   5.9049   6.0261   6.1441   6.2248   6.3855   6.5667
     6.6277   6.6487   6.7359   6.7837   6.9340   7.0194   7.0730   7.1050
     7.2592   7.2840   7.3936   7.4634   7.5279   7.5565   7.6103

          k =-0.5000-0.0174-0.4733 ( 32942 PWs)   bands (ev):

    -8.5032  -8.3871  -8.1847  -8.0298  -7.8804  -7.7036  -7.6774  -7.6438
    -7.5470  -7.5149  -7.4500  -7.4016  -7.3507  -7.2392  -7.2182  -7.1145
    -7.0822  -7.0616  -7.0499  -6.8830  -6.7299  -6.5106  -6.4392  -6.3721
    -6.2628  -5.9546  -5.7562  -5.5120  -0.3715  -0.2983  -0.1952  -0.1690
    -0.0566  -0.0094   0.0991   0.1143   0.2264   0.3527   0.4039   0.4796
     0.5005   0.5830   0.6425   0.6858   0.6975   0.7357   0.8109   0.8518
     0.8830   0.9459   0.9845   1.0110   1.0366   1.1467   1.1914   1.2750
     1.3500   1.4076   1.4333   1.5072   1.5453   1.5896   1.6708   1.7321
     1.7856   1.7962   1.8655   1.8981   1.9161   1.9595   1.9973   2.0134
     2.0812   2.1204   2.1906   2.2424   2.2639   2.3531   2.3867   2.4134
     2.4861   2.5321   2.5720   2.6083   2.7044   2.7188   2.8396   2.8643
     2.8856   3.0731   3.1271   3.1289   3.2699   3.3423   3.3597   3.4124
     3.5049   3.5985   3.6351   3.6608   3.7320   3.8313   3.8728   3.9509
     3.9884   4.0918   4.1584   4.1873   4.2760   4.3148   4.3802   4.4891
     4.5859   4.6598   4.6724   4.7730   4.8203   4.9499   4.9947   5.0786
     5.1803   5.2415   5.2900   5.3082   5.4530   5.4858   5.4996   5.6027
     5.6950   5.7336   5.8967   6.0258   6.1449   6.2472   6.4874   6.5031
     6.5817   6.6186   6.6999   6.7314   6.8013   6.9509   7.0533   7.1461
     7.2321   7.2864   7.3529   7.4511   7.5014   7.5468   7.5877

          k =-0.5000-0.4914-0.0464 ( 33024 PWs)   bands (ev):

    -8.4836  -8.4158  -8.2173  -7.9340  -7.8785  -7.8161  -7.6864  -7.5791
    -7.5183  -7.4965  -7.4311  -7.3802  -7.3546  -7.2902  -7.2189  -7.1530
    -7.1142  -7.0689  -7.0294  -6.8699  -6.7302  -6.5120  -6.4102  -6.3816
    -6.2790  -5.9499  -5.7534  -5.5116  -0.3040  -0.1994  -0.1750  -0.1349
    -0.0029   0.0093   0.0456   0.1508   0.1570   0.3027   0.3893   0.4390
     0.4888   0.5389   0.5949   0.6127   0.6980   0.7514   0.8085   0.8454
     0.8642   0.9707   0.9912   1.0295   1.0643   1.0891   1.2184   1.2485
     1.3469   1.4048   1.4308   1.4806   1.5556   1.6090   1.6748   1.7095
     1.7183   1.7708   1.8115   1.9340   1.9368   1.9980   2.0553   2.0672
     2.1243   2.1656   2.2060   2.2554   2.2759   2.3481   2.3760   2.4206
     2.4668   2.5322   2.5743   2.6085   2.6223   2.7691   2.8301   2.8655
     2.9527   2.9901   3.0021   3.1120   3.1727   3.2323   3.3815   3.4148
     3.5266   3.5555   3.5765   3.6590   3.6907   3.8989   3.9532   4.0200
     4.0956   4.1168   4.1642   4.3018   4.3350   4.3982   4.4865   4.5357
     4.5642   4.5982   4.6755   4.7419   4.8565   4.9085   4.9381   5.0777
     5.0925   5.2170   5.2866   5.3861   5.4223   5.4588   5.5027   5.6207
     5.6500   5.7361   5.8096   6.0504   6.0671   6.2060   6.3069   6.5004
     6.5906   6.6644   6.7601   6.9064   6.9556   6.9912   7.0267   7.0846
     7.1802   7.3131   7.3934   7.4140   7.5114   7.5531   7.5823

          k =-0.5000-0.4914-0.5172 ( 32974 PWs)   bands (ev):

    -8.4732  -8.3236  -8.2381  -8.0264  -7.9220  -7.8245  -7.6955  -7.6101
    -7.5673  -7.4449  -7.4089  -7.4015  -7.3095  -7.2846  -7.2043  -7.1250
    -7.1033  -7.0749  -7.0456  -6.8573  -6.7290  -6.5132  -6.4256  -6.3651
    -6.2583  -5.9518  -5.7541  -5.5129  -0.3219  -0.2792  -0.2154  -0.0538
    -0.0156   0.0437   0.1112   0.1463   0.1903   0.2321   0.3643   0.4485
     0.5236   0.5828   0.6230   0.6443   0.7053   0.7555   0.7924   0.8465
     0.8689   0.9520   0.9832   1.0153   1.0839   1.1393   1.1905   1.2496
     1.3158   1.3505   1.3776   1.5000   1.5021   1.5684   1.5878   1.6949
     1.7298   1.7976   1.8306   1.9212   1.9346   1.9485   1.9762   1.9928
     2.0692   2.1308   2.2366   2.2748   2.2815   2.3022   2.3634   2.4205
     2.5309   2.5556   2.5789   2.6383   2.6621   2.7341   2.7755   2.8570
     2.9832   2.9959   3.0278   3.1284   3.2079   3.3105   3.3859   3.4284
     3.4466   3.6149   3.7122   3.7807   3.9129   3.9254   3.9895   4.0119
     4.0170   4.1399   4.2069   4.2567   4.2908   4.3979   4.4990   4.5236
     4.5510   4.6302   4.6568   4.7481   4.7989   4.8602   4.9083   5.0987
     5.1956   5.2328   5.2681   5.3821   5.4554   5.5292   5.5510   5.5919
     5.6731   5.7194   5.8162   5.8875   6.1106   6.1720   6.3818   6.5220
     6.5358   6.6405   6.6789   6.8304   6.9265   6.9632   7.0415   7.0869
     7.1302   7.2859   7.3029   7.3604   7.4696   7.5237   7.6152

     the Fermi energy is     5.5112 ev

!    total energy              =    -985.10988950 Ry
     Harris-Foulkes estimate   =    -985.10988994 Ry
     estimated scf accuracy    <       0.00000048 Ry

     The total energy is the sum of the following terms:

     one-electron contribution =    -177.85658590 Ry
     hartree contribution      =     222.62514420 Ry
     xc contribution           =    -389.06498146 Ry
     ewald contribution        =    -640.81059940 Ry
     smearing contrib. (-TS)   =      -0.00286694 Ry

     convergence has been achieved in  16 iterations

     Forces acting on atoms (cartesian axes, Ry/au):

     atom    1 type  1   force =    -0.02343565    0.01456002   -0.02334478
     atom    2 type  1   force =    -0.02788549    0.00446709   -0.02374903
     atom    3 type  1   force =    -0.05892380   -0.00105026   -0.03284547
     atom    4 type  1   force =     0.04687662    0.04195139   -0.02403309
     atom    5 type  1   force =    -0.00146329    0.05060613    0.01253335
     atom    6 type  1   force =     0.00241308    0.03395154    0.02388821
     atom    7 type  1   force =    -0.04339959   -0.03962751    0.05869148
     atom    8 type  1   force =     0.02222533    0.03182688    0.00190387
     atom    9 type  1   force =    -0.07017845   -0.02959385   -0.00608896
     atom   10 type  1   force =     0.02991973   -0.07176012    0.10660378
     atom   11 type  1   force =    -0.01715912    0.00877338    0.04169497
     atom   12 type  1   force =     0.08941595    0.03503031   -0.06758715
     atom   13 type  1   force =    -0.06942795    0.00659662    0.00287143
     atom   14 type  1   force =     0.08764378    0.01110967    0.11698419
     atom   15 type  2   force =     0.01765486   -0.02065219   -0.02665619
     atom   16 type  2   force =    -0.00575639    0.02192819    0.01977158
     atom   17 type  2   force =    -0.03059367    0.01146890    0.00264574
     atom   18 type  2   force =    -0.00646992   -0.00380274    0.05299135
     atom   19 type  2   force =     0.00391522    0.00478168    0.00091569
     atom   20 type  2   force =     0.00422242    0.03643415    0.03268961
     atom   21 type  2   force =    -0.00573467    0.01636438   -0.00278701
     atom   22 type  2   force =     0.01197525   -0.02473659   -0.01170419
     atom   23 type  2   force =    -0.00165795    0.01546871    0.00796945
     atom   24 type  2   force =    -0.00990745    0.00747095    0.00392402
     atom   25 type  2   force =     0.00954911   -0.00925871    0.00200410
     atom   26 type  2   force =     0.03111878    0.00519282   -0.00919335
     atom   27 type  2   force =     0.00721962    0.01338430   -0.00100638
     atom   28 type  2   force =     0.01349724    0.01861631   -0.02776948
     atom   29 type  2   force =    -0.02017981    0.03019517   -0.00384917
     atom   30 type  2   force =     0.01104786    0.00453019   -0.02024478
     atom   31 type  2   force =    -0.02784187    0.00708173   -0.02931206
     atom   32 type  2   force =     0.04631799   -0.01898742   -0.08339415
     atom   33 type  2   force =    -0.05923086   -0.03729846    0.01974752
     atom   34 type  2   force =    -0.00350258   -0.03592964    0.00418343
     atom   35 type  2   force =    -0.02159422    0.00222918   -0.04383133
     atom   36 type  2   force =    -0.00216905   -0.00750762   -0.04593795
     atom   37 type  2   force =    -0.04162375   -0.00802467    0.01187889
     atom   38 type  2   force =    -0.00105069   -0.07572144   -0.01295048
     atom   39 type  2   force =     0.07669657   -0.03008269   -0.04693915
     atom   40 type  2   force =    -0.01649148   -0.04323357    0.00670587
     atom   41 type  2   force =     0.01506089    0.01807911    0.05762744
     atom   42 type  2   force =     0.03890741    0.00516866   -0.04500181

     Total force =     0.392427     Total SCF correction =     0.001228
 
     init_run     :      7.00s CPU      7.20s WALL (       1 calls)
     electrons    :    206.86s CPU    210.93s WALL (       1 calls)
     forces       :      4.13s CPU      4.23s WALL (       1 calls)

     Called by init_run:
     wfcinit      :      5.01s CPU      5.11s WALL (       1 calls)
     potinit      :      0.51s CPU      0.51s WALL (       1 calls)
     hinit0       :      0.67s CPU      0.69s WALL (       1 calls)

     Called by electrons:
     c_bands      :    171.38s CPU    173.30s WALL (      16 calls)
     sum_band     :     28.31s CPU     29.83s WALL (      16 calls)
     v_of_rho     :      1.27s CPU      1.32s WALL (      17 calls)
     newd         :      4.74s CPU      5.29s WALL (      17 calls)
     mix_rho      :      1.27s CPU      1.35s WALL (      16 calls)

     Called by c_bands:
     init_us_2    :      4.19s CPU      4.21s WALL (     272 calls)
     cegterg      :    159.61s CPU    161.48s WALL (     128 calls)

     Called by sum_band:
     sum_band:bec :      0.28s CPU      0.29s WALL (     128 calls)
     addusdens    :      7.69s CPU      8.81s WALL (      16 calls)

     Called by *egterg:
     h_psi        :     83.56s CPU     84.78s WALL (     551 calls)
     s_psi        :     16.74s CPU     16.75s WALL (     551 calls)
     g_psi        :      0.44s CPU      0.45s WALL (     415 calls)
     cdiaghg      :     32.12s CPU     32.67s WALL (     543 calls)

     Called by h_psi:
     h_psi:pot    :     82.52s CPU     83.72s WALL (     551 calls)
     h_psi:calbec :     19.34s CPU     19.75s WALL (     551 calls)
     vloc_psi     :     45.89s CPU     46.66s WALL (     551 calls)
     add_vuspsi   :     17.27s CPU     17.30s WALL (     551 calls)

     General routines
     calbec       :     28.55s CPU     29.18s WALL (     711 calls)
     fft          :      0.98s CPU      1.06s WALL (     230 calls)
     ffts         :      0.54s CPU      0.61s WALL (     458 calls)
     fftw         :     51.89s CPU     52.76s WALL (  113816 calls)
     interpolate  :      0.11s CPU      0.12s WALL (      17 calls)
 
     Parallel routines
     fft_scatt_xy :      5.02s CPU      5.11s WALL (  114504 calls)
     fft_scatt_yz :     21.76s CPU     22.24s WALL (  114504 calls)
 
     PWSCF        :   3m38.73s CPU   3m43.22s WALL

 
   This run was terminated on:  20:56:58  24Dec2021            

=------------------------------------------------------------------------------=
   JOB DONE.
=------------------------------------------------------------------------------=
