
     Program PWSCF v.6.4 starts on  2Sep2021 at 10:48:28 

     This program is part of the open-source Quantum ESPRESSO suite
     for quantum simulation of materials; please cite
         "P. Giannozzi et al., J. Phys.:Condens. Matter 21 395502 (2009);
         "P. Giannozzi et al., J. Phys.:Condens. Matter 29 465901 (2017);
          URL http://www.quantum-espresso.org", 
     in publications or presentations arising from this work. More details at
     http://www.quantum-espresso.org/quote

     Parallel version (MPI), running on    40 processors

     MPI processes distributed on     1 nodes
     R & G space division:  proc/nbgrp/npool/nimage =      40
     Waiting for input...
     Reading input from standard input
Warning: card    &IONS ignored
Warning: card      ION_DYNAMICS = 'BFGS' ignored
Warning: card   / ignored
Warning: card    &CELL ignored
Warning: card      CELL_DYNAMICS = 'BFGS', ignored
Warning: card    / ignored

     Current dimensions of program PWSCF are:
     Max number of different atomic species (ntypx) = 10
     Max number of k-points (npk) =  40000
     Max angular momentum in pseudopotentials (lmaxx) =  3

     Subspace diagonalization in iterative solution of the eigenvalue problem:
     one sub-group per band group will be used
     scalapack distributed-memory algorithm (size of sub-group:  4*  4 procs)

 
     Parallelization info
     --------------------
     sticks:   dense  smooth     PW     G-vecs:    dense   smooth      PW
     Min          91      45     12                11426     4033     581
     Max          92      46     13                11440     4049     595
     Sum        3663    1829    507               457303   161603   23527
 


     bravais-lattice index     =            0
     lattice parameter (alat)  =      12.0934  a.u.
     unit-cell volume          =    3964.9357 (a.u.)^3
     number of atoms/cell      =           12
     number of atomic types    =            2
     number of electrons       =        72.00
     number of Kohn-Sham states=           43
     kinetic-energy cutoff     =      45.0000  Ry
     charge density cutoff     =     360.0000  Ry
     convergence threshold     =      1.0E-06
     mixing beta               =       0.7000
     number of iterations used =            8  local-TF  mixing
     Exchange-correlation      = SLA PW GGX GGC ( 1  4  2  2 0 0)

     celldm(1)=  12.093406  celldm(2)=   0.000000  celldm(3)=   0.000000
     celldm(4)=   0.000000  celldm(5)=   0.000000  celldm(6)=   0.000000

     crystal axes: (cart. coord. in units of alat)
               a(1) = (   1.000000   0.000000   0.000000 )  
               a(2) = (  -0.492776   0.876090   0.000000 )  
               a(3) = (  -0.000490  -0.246831   2.558830 )  

     reciprocal axes: (cart. coord. in units 2 pi/alat)
               b(1) = (  1.000000  0.562472  0.054449 )  
               b(2) = (  0.000000  1.141435  0.110105 )  
               b(3) = (  0.000000  0.000000  0.390804 )  


     PseudoPot. # 1 for Mo read from file:
     ~/pseudo/Mo.pw91-n-van.UPF
     MD5 check sum: Not computed, couldn't open file
     Pseudo is Ultrasoft + core correction, Zval =  6.0
     Generated by new atomic code, or converted to UPF format
     Using radial grid of  965 points,  3 beta functions with: 
                l(1) =   1
                l(2) =   2
                l(3) =   2
     Q(r) pseudized with  8 coefficients,  rinner =    1.000   1.000   1.000
                                                       1.200   1.200

     PseudoPot. # 2 for S  read from file:
     ~/pseudo/S.pw91-van_ak.UPF
     MD5 check sum: Not computed, couldn't open file
     Pseudo is Ultrasoft, Zval =  6.0
     Generated by new atomic code, or converted to UPF format
     Using radial grid of  811 points,  6 beta functions with: 
                l(1) =   0
                l(2) =   0
                l(3) =   1
                l(4) =   1
                l(5) =   2
                l(6) =   2
     Q(r) pseudized with  8 coefficients,  rinner =    1.100   1.100   1.100
                                                       1.100   1.100

     atomic species   valence    mass     pseudopotential
        Mo             6.00    95.50000     Mo( 1.00)
        S              6.00    32.06500     S ( 1.00)

     No symmetry found



   Cartesian axes

     site n.     atom                  positions (alat units)
         1           Mo  tau(   1) = (   0.0039972  -0.2451980   2.5449178  )
         2           Mo  tau(   2) = (   0.0078604   0.6259578   2.5360551  )
         3           Mo  tau(   3) = (   0.2592729   0.1936333   2.5533523  )
         4           Mo  tau(   4) = (   0.7575499   0.4362504   0.0065413  )
         5           S   tau(   5) = (  -0.2393818   0.7381795   0.2355499  )
         6           S   tau(   6) = (   0.2582973   0.7412031   0.2308827  )
         7           S   tau(   7) = (   0.5009589   0.2755689   0.2385209  )
         8           S   tau(   8) = (   0.0160518   0.2896041   0.2405089  )
         9           S   tau(   9) = (  -0.2490189   0.4651445   2.3018656  )
        10           S   tau(  10) = (   0.2644424   0.4807334   2.2976260  )
        11           S   tau(  11) = (   0.5110604   0.0504367   2.3083142  )
        12           S   tau(  12) = (   0.0063807   0.0561279   2.3099629  )

     number of k points=     5  Marzari-Vanderbilt smearing, width (Ry)=  0.0200
                       cart. coord. in units 2pi/alat
        k(    1) = (   0.0000000   0.0000000   0.0000000), wk =   0.2222222
        k(    2) = (   0.0000000   0.3804784   0.0367018), wk =   0.4444444
        k(    3) = (   0.3333333   0.1874906   0.0181496), wk =   0.4444444
        k(    4) = (   0.3333333   0.5679690   0.0548514), wk =   0.4444444
        k(    5) = (   0.3333333  -0.1929878  -0.0185522), wk =   0.4444444

     Dense  grid:   457303 G-vectors     FFT dimensions: (  75,  75, 192)

     Smooth grid:   161603 G-vectors     FFT dimensions: (  54,  54, 135)

     Estimated max dynamical RAM per process >      54.83 MB

     Estimated total dynamical RAM >       2.14 GB

     Initial potential from superposition of free atoms

     starting charge   71.99369, renormalised to   72.00000

     negative rho (up, down):  5.836E-04 0.000E+00
     Starting wfcs are   68 randomized atomic wfcs

     total cpu time spent up to now is        2.3 secs

     Self-consistent Calculation

     iteration #  1     ecut=    45.00 Ry     beta= 0.70
     Davidson diagonalization with overlap
     ethr =  1.00E-02,  avg # of iterations =  2.0

     negative rho (up, down):  2.289E-05 0.000E+00

     total cpu time spent up to now is        4.3 secs

     total energy              =    -281.39937265 Ry
     Harris-Foulkes estimate   =    -282.26622285 Ry
     estimated scf accuracy    <       2.21232895 Ry

     iteration #  2     ecut=    45.00 Ry     beta= 0.70
     Davidson diagonalization with overlap
     ethr =  3.07E-03,  avg # of iterations =  2.8

     negative rho (up, down):  4.541E-07 0.000E+00

     total cpu time spent up to now is        6.0 secs

     total energy              =    -281.81107271 Ry
     Harris-Foulkes estimate   =    -281.86358084 Ry
     estimated scf accuracy    <       0.27918442 Ry

     iteration #  3     ecut=    45.00 Ry     beta= 0.70
     Davidson diagonalization with overlap
     ethr =  3.88E-04,  avg # of iterations =  2.0

     total cpu time spent up to now is        7.5 secs

     total energy              =    -281.80661685 Ry
     Harris-Foulkes estimate   =    -281.83597569 Ry
     estimated scf accuracy    <       0.07554363 Ry

     iteration #  4     ecut=    45.00 Ry     beta= 0.70
     Davidson diagonalization with overlap
     ethr =  1.05E-04,  avg # of iterations =  3.6

     total cpu time spent up to now is        9.2 secs

     total energy              =    -281.81755528 Ry
     Harris-Foulkes estimate   =    -281.84097564 Ry
     estimated scf accuracy    <       0.06662975 Ry

     iteration #  5     ecut=    45.00 Ry     beta= 0.70
     Davidson diagonalization with overlap
     ethr =  9.25E-05,  avg # of iterations =  2.6

     total cpu time spent up to now is       10.6 secs

     total energy              =    -281.82879035 Ry
     Harris-Foulkes estimate   =    -281.83037019 Ry
     estimated scf accuracy    <       0.00698949 Ry

     iteration #  6     ecut=    45.00 Ry     beta= 0.70
     Davidson diagonalization with overlap
     ethr =  9.71E-06,  avg # of iterations =  5.6

     total cpu time spent up to now is       12.4 secs

     total energy              =    -281.82923589 Ry
     Harris-Foulkes estimate   =    -281.82977044 Ry
     estimated scf accuracy    <       0.00590449 Ry

     iteration #  7     ecut=    45.00 Ry     beta= 0.70
     Davidson diagonalization with overlap
     ethr =  8.20E-06,  avg # of iterations =  1.0

     total cpu time spent up to now is       13.7 secs

     total energy              =    -281.82955369 Ry
     Harris-Foulkes estimate   =    -281.82933928 Ry
     estimated scf accuracy    <       0.00352824 Ry

     iteration #  8     ecut=    45.00 Ry     beta= 0.70
     Davidson diagonalization with overlap
     ethr =  4.90E-06,  avg # of iterations =  3.2

     negative rho (up, down):  2.569E-05 0.000E+00

     total cpu time spent up to now is       15.5 secs

     total energy              =    -281.83040888 Ry
     Harris-Foulkes estimate   =    -281.83007771 Ry
     estimated scf accuracy    <       0.00027180 Ry

     iteration #  9     ecut=    45.00 Ry     beta= 0.70
     Davidson diagonalization with overlap
     ethr =  3.77E-07,  avg # of iterations =  5.2

     negative rho (up, down):  2.444E-04 0.000E+00

     total cpu time spent up to now is       17.8 secs

     total energy              =    -281.83054784 Ry
     Harris-Foulkes estimate   =    -281.83046789 Ry
     estimated scf accuracy    <       0.00023099 Ry

     iteration # 10     ecut=    45.00 Ry     beta= 0.70
     Davidson diagonalization with overlap
     ethr =  3.21E-07,  avg # of iterations =  1.0

     negative rho (up, down):  4.366E-04 0.000E+00

     total cpu time spent up to now is       19.4 secs

     total energy              =    -281.83049785 Ry
     Harris-Foulkes estimate   =    -281.83055248 Ry
     estimated scf accuracy    <       0.00029257 Ry

     iteration # 11     ecut=    45.00 Ry     beta= 0.70
     Davidson diagonalization with overlap
     ethr =  3.21E-07,  avg # of iterations =  1.0

     negative rho (up, down):  6.185E-04 0.000E+00

     total cpu time spent up to now is       21.1 secs

     total energy              =    -281.83049254 Ry
     Harris-Foulkes estimate   =    -281.83050954 Ry
     estimated scf accuracy    <       0.00007387 Ry

     iteration # 12     ecut=    45.00 Ry     beta= 0.70
     Davidson diagonalization with overlap
     ethr =  1.03E-07,  avg # of iterations =  3.0

     negative rho (up, down):  7.228E-04 0.000E+00

     total cpu time spent up to now is       23.2 secs

     total energy              =    -281.83051081 Ry
     Harris-Foulkes estimate   =    -281.83051264 Ry
     estimated scf accuracy    <       0.00001315 Ry

     iteration # 13     ecut=    45.00 Ry     beta= 0.70
     Davidson diagonalization with overlap
     ethr =  1.83E-08,  avg # of iterations =  2.8

     negative rho (up, down):  8.238E-04 0.000E+00

     total cpu time spent up to now is       24.6 secs

     End of self-consistent calculation

          k = 0.0000 0.0000 0.0000 ( 20189 PWs)   bands (ev):

   -14.8342 -13.6331 -13.1049 -13.0869 -13.0600 -12.8218 -12.7967 -12.7681
    -6.4450  -6.4385  -6.4316  -6.3039  -5.5402  -5.5116  -5.4592  -4.8117
    -4.7836  -4.7549  -4.0140  -3.9270  -3.8541  -3.4908  -3.3401  -2.6523
    -2.6380  -2.5990  -2.5069  -2.3337  -2.2576  -1.8328  -1.7735  -1.7160
    -1.4616  -1.4230  -1.3764  -0.8118   1.1700   1.1917   1.2014   1.6745
     1.7088   1.7202   1.9116

          k = 0.0000 0.3805 0.0367 ( 20212 PWs)   bands (ev):

   -14.4797 -13.6951 -13.3830 -13.1205 -13.0887 -13.0202 -12.7879 -12.7498
    -6.0409  -6.0068  -5.9246  -5.9034  -5.5974  -5.5754  -4.9159  -4.7203
    -4.5970  -4.5636  -4.1377  -3.9947  -3.9370  -3.6031  -3.5703  -3.1576
    -3.0724  -2.9198  -2.8060  -2.4835  -2.4547  -2.3826  -2.0910  -1.8771
    -1.7502  -1.3352  -1.2863  -1.1025   1.2283   1.2624   1.2764   1.3757
     1.4137   1.6575   1.7120

          k = 0.3333 0.1875 0.0181 ( 20201 PWs)   bands (ev):

   -14.4722 -13.6456 -13.4416 -13.1509 -13.0935 -12.9830 -12.7865 -12.7591
    -6.0081  -5.9959  -5.9247  -5.9066  -5.5981  -5.5521  -4.9212  -4.6671
    -4.6063  -4.5414  -4.1469  -3.9739  -3.9095  -3.6345  -3.6142  -3.1356
    -3.1089  -2.9787  -2.7961  -2.5068  -2.4891  -2.3552  -2.1468  -1.8713
    -1.7285  -1.3174  -1.2789  -1.0938   1.2235   1.2316   1.2651   1.3957
     1.4180   1.6723   1.6919

          k = 0.3333 0.5680 0.0549 ( 20225 PWs)   bands (ev):

   -13.8920 -13.8718 -13.8343 -13.1392 -13.1284 -13.1146 -12.8318 -12.6258
    -6.0689  -5.6438  -5.6315  -5.6194  -5.3069  -4.8373  -4.6616  -4.6390
    -4.5813  -4.4313  -4.3390  -4.3163  -4.2705  -3.9173  -3.8765  -3.8481
    -3.6297  -2.9198  -2.7611  -2.7345  -2.7166  -1.8725  -1.8624  -1.8349
    -1.5982  -1.5550  -1.5424  -0.8334   0.7494   1.0311   1.0511   1.0639
     1.4709   1.5284   1.5536

          k = 0.3333-0.1930-0.0186 ( 20200 PWs)   bands (ev):

   -14.4651 -13.6041 -13.4692 -13.1730 -13.0943 -12.9593 -12.8429 -12.7356
    -6.0264  -5.9371  -5.9235  -5.9070  -5.5693  -5.5324  -4.9255  -4.6233
    -4.6169  -4.5398  -4.1066  -3.9835  -3.8338  -3.7329  -3.5987  -3.2315
    -3.0713  -3.0151  -2.8423  -2.5350  -2.4940  -2.3322  -2.2198  -1.8278
    -1.7086  -1.2971  -1.2561  -1.0785   1.1885   1.2078   1.2365   1.4159
     1.4694   1.6265   1.6526

     the Fermi energy is    -0.7153 ev

!    total energy              =    -281.83051479 Ry
     Harris-Foulkes estimate   =    -281.83051301 Ry
     estimated scf accuracy    <       0.00000023 Ry

     The total energy is the sum of the following terms:

     one-electron contribution =   -1245.53895789 Ry
     hartree contribution      =     645.00715805 Ry
     xc contribution           =    -111.40528477 Ry
     ewald contribution        =     430.09906046 Ry
     smearing contrib. (-TS)   =       0.00750936 Ry

     convergence has been achieved in  13 iterations

     negative rho (up, down):  8.238E-04 0.000E+00

     Forces acting on atoms (cartesian axes, Ry/au):

     atom    1 type  1   force =     0.00131530    0.00720174    0.00510553
     atom    2 type  1   force =     0.00079182   -0.00046957    0.02428967
     atom    3 type  1   force =     0.00639042    0.00539363   -0.00387008
     atom    4 type  1   force =    -0.00268215   -0.00325119   -0.02877100
     atom    5 type  2   force =    -0.00037784   -0.01230809    0.00442487
     atom    6 type  2   force =     0.00086534   -0.01724279    0.00370429
     atom    7 type  2   force =     0.00823959    0.01949436    0.00257752
     atom    8 type  2   force =    -0.01258885    0.00002032    0.00942326
     atom    9 type  2   force =     0.01288323    0.02193799    0.00030679
     atom   10 type  2   force =    -0.00679363    0.00094509   -0.00229444
     atom   11 type  2   force =    -0.00539440   -0.00592770   -0.00947805
     atom   12 type  2   force =    -0.00264883   -0.01579377   -0.00541837

     Total force =     0.062652     Total SCF correction =     0.001198
 
     init_run     :      1.50s CPU      1.57s WALL (       1 calls)
     electrons    :     21.92s CPU     22.26s WALL (       1 calls)
     forces       :      0.86s CPU      0.86s WALL (       1 calls)

     Called by init_run:
     wfcinit      :      0.40s CPU      0.41s WALL (       1 calls)
     potinit      :      0.30s CPU      0.30s WALL (       1 calls)
     hinit0       :      0.41s CPU      0.43s WALL (       1 calls)

     Called by electrons:
     c_bands      :     10.70s CPU     10.86s WALL (      13 calls)
     sum_band     :      4.87s CPU      4.97s WALL (      13 calls)
     v_of_rho     :      0.57s CPU      0.60s WALL (      14 calls)
     newd         :      2.10s CPU      2.13s WALL (      14 calls)
     mix_rho      :      3.78s CPU      3.80s WALL (      13 calls)

     Called by c_bands:
     init_us_2    :      0.34s CPU      0.35s WALL (     140 calls)
     cegterg      :      9.67s CPU      9.82s WALL (      65 calls)

     Called by sum_band:
     sum_band:bec :      0.01s CPU      0.01s WALL (      65 calls)
     addusdens    :      3.39s CPU      3.45s WALL (      13 calls)

     Called by *egterg:
     h_psi        :      5.81s CPU      5.92s WALL (     249 calls)
     s_psi        :      0.54s CPU      0.54s WALL (     249 calls)
     g_psi        :      0.02s CPU      0.02s WALL (     179 calls)
     cdiaghg      :      2.25s CPU      2.27s WALL (     244 calls)

     Called by h_psi:
     h_psi:pot    :      5.77s CPU      5.89s WALL (     249 calls)
     h_psi:calbec :      0.73s CPU      0.73s WALL (     249 calls)
     vloc_psi     :      4.48s CPU      4.59s WALL (     249 calls)
     add_vuspsi   :      0.56s CPU      0.56s WALL (     249 calls)

     General routines
     calbec       :      1.02s CPU      1.03s WALL (     334 calls)
     fft          :      0.41s CPU      0.45s WALL (     191 calls)
     ffts         :      1.80s CPU      1.81s WALL (    2503 calls)
     fftw         :      5.05s CPU      5.16s WALL (   16927 calls)
     interpolate  :      0.05s CPU      0.05s WALL (      14 calls)
 
     Parallel routines
     fft_scatt_xy :      0.68s CPU      0.69s WALL (   19621 calls)
     fft_scatt_yz :      3.63s CPU      3.73s WALL (   19621 calls)
 
     PWSCF        :     25.03s CPU     25.55s WALL

 
   This run was terminated on:  10:48:54   2Sep2021            

=------------------------------------------------------------------------------=
   JOB DONE.
=------------------------------------------------------------------------------=
