
     Program PWSCF v.6.4 starts on  8Sep2021 at 11:58: 0 

     This program is part of the open-source Quantum ESPRESSO suite
     for quantum simulation of materials; please cite
         "P. Giannozzi et al., J. Phys.:Condens. Matter 21 395502 (2009);
         "P. Giannozzi et al., J. Phys.:Condens. Matter 29 465901 (2017);
          URL http://www.quantum-espresso.org", 
     in publications or presentations arising from this work. More details at
     http://www.quantum-espresso.org/quote

     Parallel version (MPI), running on    40 processors

     MPI processes distributed on     1 nodes
     R & G space division:  proc/nbgrp/npool/nimage =      40
     Waiting for input...
     Reading input from standard input
Warning: card    &IONS ignored
Warning: card      ION_DYNAMICS = 'BFGS' ignored
Warning: card   / ignored
Warning: card    &CELL ignored
Warning: card      CELL_DYNAMICS = 'BFGS', ignored
Warning: card    / ignored

     Current dimensions of program PWSCF are:
     Max number of different atomic species (ntypx) = 10
     Max number of k-points (npk) =  40000
     Max angular momentum in pseudopotentials (lmaxx) =  3

     Subspace diagonalization in iterative solution of the eigenvalue problem:
     one sub-group per band group will be used
     scalapack distributed-memory algorithm (size of sub-group:  4*  4 procs)

 
     Parallelization info
     --------------------
     sticks:   dense  smooth     PW     G-vecs:    dense   smooth      PW
     Min          47      23      6                10133     3572     549
     Max          48      24      7                10151     3601     598
     Sum        1889     943    275               405669   143447   23057
 


     bravais-lattice index     =            0
     lattice parameter (alat)  =      12.4787  a.u.
     unit-cell volume          =    3516.8147 (a.u.)^3
     number of atoms/cell      =           24
     number of atomic types    =            2
     number of electrons       =       144.00
     number of Kohn-Sham states=           86
     kinetic-energy cutoff     =      45.0000  Ry
     charge density cutoff     =     360.0000  Ry
     convergence threshold     =      1.0E-06
     mixing beta               =       0.7000
     number of iterations used =            8  local-TF  mixing
     Exchange-correlation      = SLA PW GGX GGC ( 1  4  2  2 0 0)

     celldm(1)=  12.478718  celldm(2)=   0.000000  celldm(3)=   0.000000
     celldm(4)=   0.000000  celldm(5)=   0.000000  celldm(6)=   0.000000

     crystal axes: (cart. coord. in units of alat)
               a(1) = (   0.999811   0.018690  -0.005267 )  
               a(2) = (  -0.241383   0.418719  -0.000084 )  
               a(3) = (  -0.269401  -0.157775   4.278948 )  

     reciprocal axes: (cart. coord. in units 2 pi/alat)
               b(1) = (  0.989959  0.570708  0.083371 )  
               b(2) = ( -0.043729  2.363042  0.084378 )  
               b(3) = (  0.001218  0.000749  0.233807 )  


     PseudoPot. # 1 for Mo read from file:
     ~/pseudo/Mo.pw91-n-van.UPF
     MD5 check sum: Not computed, couldn't open file
     Pseudo is Ultrasoft + core correction, Zval =  6.0
     Generated by new atomic code, or converted to UPF format
     Using radial grid of  965 points,  3 beta functions with: 
                l(1) =   1
                l(2) =   2
                l(3) =   2
     Q(r) pseudized with  8 coefficients,  rinner =    1.000   1.000   1.000
                                                       1.200   1.200

     PseudoPot. # 2 for S  read from file:
     ~/pseudo/S.pw91-van_ak.UPF
     MD5 check sum: Not computed, couldn't open file
     Pseudo is Ultrasoft, Zval =  6.0
     Generated by new atomic code, or converted to UPF format
     Using radial grid of  811 points,  6 beta functions with: 
                l(1) =   0
                l(2) =   0
                l(3) =   1
                l(4) =   1
                l(5) =   2
                l(6) =   2
     Q(r) pseudized with  8 coefficients,  rinner =    1.100   1.100   1.100
                                                       1.100   1.100

     atomic species   valence    mass     pseudopotential
        Mo             6.00    95.50000     Mo( 1.00)
        S              6.00    32.06500     S ( 1.00)

     No symmetry found



   Cartesian axes

     site n.     atom                  positions (alat units)
         1           Mo  tau(   1) = (   0.0894848   0.1364951   1.5566965  )
         2           Mo  tau(   2) = (  -0.3270183  -0.0152465   3.8101337  )
         3           Mo  tau(   3) = (   0.5122296   0.1016635   1.5793337  )
         4           Mo  tau(   4) = (   0.2514088   0.0385935   3.7826679  )
         5           Mo  tau(   5) = (  -0.0954901  -0.1999824   0.5429067  )
         6           Mo  tau(   6) = (  -0.2093420  -0.2327303   2.6467871  )
         7           Mo  tau(   7) = (   0.4802418  -0.1472386   0.5196427  )
         8           Mo  tau(   8) = (   0.2134803  -0.2673719   2.6679727  )
         9           S   tau(   9) = (   0.3034193   0.2604769   1.8352165  )
        10           S   tau(  10) = (  -0.0399058   0.1501314   3.9985982  )
        11           S   tau(  11) = (   0.7990928   0.2670055   1.7671979  )
        12           S   tau(  12) = (   0.4639981   0.1622912   4.0610063  )
        13           S   tau(  13) = (  -0.0462717   0.1073128   0.3275061  )
        14           S   tau(  14) = (  -0.2432711   0.0267345   2.3906289  )
        15           S   tau(  15) = (   0.4443118   0.1108760   0.2629445  )
        16           S   tau(  16) = (   0.2620473   0.0389434   2.4513153  )
        17           S   tau(  17) = (  -0.0517209   0.3830921   0.7349877  )
        18           S   tau(  18) = (  -0.2352591   0.3106876   2.9237765  )
        19           S   tau(  19) = (   0.4574534   0.3978329   0.7939962  )
        20           S   tau(  20) = (   0.2595283   0.3170227   2.8579947  )
        21           S   tau(  21) = (   0.2983943  -0.0221793   1.3009678  )
        22           S   tau(  22) = (  -0.0355965  -0.1263271   3.5942915  )
        23           S   tau(  23) = (   0.8022621  -0.0100147   1.3636142  )
        24           S   tau(  24) = (   0.4600207  -0.1201324   3.5264602  )

     number of k points=     8  Marzari-Vanderbilt smearing, width (Ry)=  0.0200
                       cart. coord. in units 2pi/alat
        k(    1) = (   0.0000000   0.0000000   0.0000000), wk =   0.1333333
        k(    2) = (  -0.0087459   0.4726084   0.0168755), wk =   0.2666667
        k(    3) = (  -0.0174918   0.9452168   0.0337510), wk =   0.2666667
        k(    4) = (   0.3299864   0.1902361   0.0277902), wk =   0.2666667
        k(    5) = (   0.3212405   0.6628445   0.0446658), wk =   0.2666667
        k(    6) = (   0.3124946   1.1354529   0.0615413), wk =   0.2666667
        k(    7) = (   0.3474782  -0.7549807  -0.0059608), wk =   0.2666667
        k(    8) = (   0.3387323  -0.2823723   0.0109147), wk =   0.2666667

     Dense  grid:   405669 G-vectors     FFT dimensions: (  75,  40, 324)

     Smooth grid:   143447 G-vectors     FFT dimensions: (  54,  25, 240)

     Estimated max dynamical RAM per process >      60.15 MB

     Estimated total dynamical RAM >       2.35 GB

     Initial potential from superposition of free atoms

     starting charge  143.98738, renormalised to  144.00000
     Starting wfcs are  136 randomized atomic wfcs

     total cpu time spent up to now is        3.2 secs

     Self-consistent Calculation

     iteration #  1     ecut=    45.00 Ry     beta= 0.70
     Davidson diagonalization with overlap
     ethr =  1.00E-02,  avg # of iterations =  2.0

     total cpu time spent up to now is        6.9 secs

     total energy              =    -562.37731726 Ry
     Harris-Foulkes estimate   =    -564.27341777 Ry
     estimated scf accuracy    <       4.97103844 Ry

     iteration #  2     ecut=    45.00 Ry     beta= 0.70
     Davidson diagonalization with overlap
     ethr =  3.45E-03,  avg # of iterations =  2.2

     total cpu time spent up to now is       10.4 secs

     total energy              =    -563.30687434 Ry
     Harris-Foulkes estimate   =    -563.51180197 Ry
     estimated scf accuracy    <       1.03049659 Ry

     iteration #  3     ecut=    45.00 Ry     beta= 0.70
     Davidson diagonalization with overlap
     ethr =  7.16E-04,  avg # of iterations =  1.2

     total cpu time spent up to now is       13.2 secs

     total energy              =    -563.30649957 Ry
     Harris-Foulkes estimate   =    -563.38537028 Ry
     estimated scf accuracy    <       0.19200797 Ry

     iteration #  4     ecut=    45.00 Ry     beta= 0.70
     Davidson diagonalization with overlap
     ethr =  1.33E-04,  avg # of iterations =  3.5

     total cpu time spent up to now is       17.8 secs

     total energy              =    -563.36597143 Ry
     Harris-Foulkes estimate   =    -563.42734340 Ry
     estimated scf accuracy    <       0.31943505 Ry

     iteration #  5     ecut=    45.00 Ry     beta= 0.70
     Davidson diagonalization with overlap
     ethr =  1.33E-04,  avg # of iterations =  2.2

     total cpu time spent up to now is       21.0 secs

     total energy              =    -563.37440139 Ry
     Harris-Foulkes estimate   =    -563.38379427 Ry
     estimated scf accuracy    <       0.04311181 Ry

     iteration #  6     ecut=    45.00 Ry     beta= 0.70
     Davidson diagonalization with overlap
     ethr =  2.99E-05,  avg # of iterations =  5.4

     total cpu time spent up to now is       25.9 secs

     total energy              =    -563.38439656 Ry
     Harris-Foulkes estimate   =    -563.38483809 Ry
     estimated scf accuracy    <       0.00246201 Ry

     iteration #  7     ecut=    45.00 Ry     beta= 0.70
     Davidson diagonalization with overlap
     ethr =  1.71E-06,  avg # of iterations =  3.1

     total cpu time spent up to now is       29.5 secs

     total energy              =    -563.38463037 Ry
     Harris-Foulkes estimate   =    -563.38466907 Ry
     estimated scf accuracy    <       0.00064238 Ry

     iteration #  8     ecut=    45.00 Ry     beta= 0.70
     Davidson diagonalization with overlap
     ethr =  4.46E-07,  avg # of iterations =  1.8

     total cpu time spent up to now is       32.5 secs

     total energy              =    -563.38458889 Ry
     Harris-Foulkes estimate   =    -563.38466384 Ry
     estimated scf accuracy    <       0.00036158 Ry

     iteration #  9     ecut=    45.00 Ry     beta= 0.70
     Davidson diagonalization with overlap
     ethr =  2.51E-07,  avg # of iterations =  5.5

     total cpu time spent up to now is       37.3 secs

     total energy              =    -563.38467158 Ry
     Harris-Foulkes estimate   =    -563.38466651 Ry
     estimated scf accuracy    <       0.00004100 Ry

     iteration # 10     ecut=    45.00 Ry     beta= 0.70
     Davidson diagonalization with overlap
     ethr =  2.85E-08,  avg # of iterations =  2.6

     total cpu time spent up to now is       40.6 secs

     total energy              =    -563.38467633 Ry
     Harris-Foulkes estimate   =    -563.38467523 Ry
     estimated scf accuracy    <       0.00008104 Ry

     iteration # 11     ecut=    45.00 Ry     beta= 0.70
     Davidson diagonalization with overlap
     ethr =  2.85E-08,  avg # of iterations =  1.0

     total cpu time spent up to now is       43.3 secs

     total energy              =    -563.38466605 Ry
     Harris-Foulkes estimate   =    -563.38467722 Ry
     estimated scf accuracy    <       0.00009082 Ry

     iteration # 12     ecut=    45.00 Ry     beta= 0.70
     Davidson diagonalization with overlap
     ethr =  2.85E-08,  avg # of iterations =  1.0

     total cpu time spent up to now is       46.1 secs

     total energy              =    -563.38465244 Ry
     Harris-Foulkes estimate   =    -563.38466758 Ry
     estimated scf accuracy    <       0.00004332 Ry

     iteration # 13     ecut=    45.00 Ry     beta= 0.70
     Davidson diagonalization with overlap
     ethr =  2.85E-08,  avg # of iterations =  3.0

     total cpu time spent up to now is       50.0 secs

     total energy              =    -563.38466455 Ry
     Harris-Foulkes estimate   =    -563.38466562 Ry
     estimated scf accuracy    <       0.00002168 Ry

     iteration # 14     ecut=    45.00 Ry     beta= 0.70
     Davidson diagonalization with overlap
     ethr =  1.51E-08,  avg # of iterations =  1.0

     total cpu time spent up to now is       52.7 secs

     total energy              =    -563.38465897 Ry
     Harris-Foulkes estimate   =    -563.38466489 Ry
     estimated scf accuracy    <       0.00001618 Ry

     iteration # 15     ecut=    45.00 Ry     beta= 0.70
     Davidson diagonalization with overlap
     ethr =  1.12E-08,  avg # of iterations =  3.1

     total cpu time spent up to now is       56.7 secs

     total energy              =    -563.38466317 Ry
     Harris-Foulkes estimate   =    -563.38466394 Ry
     estimated scf accuracy    <       0.00000762 Ry

     iteration # 16     ecut=    45.00 Ry     beta= 0.70
     Davidson diagonalization with overlap
     ethr =  5.29E-09,  avg # of iterations =  1.1

     total cpu time spent up to now is       59.5 secs

     total energy              =    -563.38466219 Ry
     Harris-Foulkes estimate   =    -563.38466337 Ry
     estimated scf accuracy    <       0.00000410 Ry

     iteration # 17     ecut=    45.00 Ry     beta= 0.70
     Davidson diagonalization with overlap
     ethr =  2.85E-09,  avg # of iterations =  3.1

     total cpu time spent up to now is       63.2 secs

     End of self-consistent calculation

          k = 0.0000 0.0000 0.0000 ( 18057 PWs)   bands (ev):

    -8.1784  -8.1065  -8.0950  -8.0613  -7.2015  -7.1280  -7.1188  -7.0879
    -6.4929  -6.4328  -6.4134  -6.3890  -6.3878  -6.3586  -6.3548  -6.3111
    -0.0618   0.0167   0.0296   0.0531   0.3900   0.5774   0.6236   0.7596
     1.2916   1.3471   1.3643   1.4137   1.4503   1.5138   1.5313   1.5711
     2.6037   2.6666   2.6681   2.6719   2.6909   2.7260   2.7294   2.7666
     2.9636   3.0357   3.0577   3.1014   3.2830   3.3747   3.4445   3.5028
     3.6894   3.9632   4.0220   4.2030   4.5751   4.6307   4.6530   4.7505
     4.8347   4.9340   4.9351   4.9637   5.1557   5.3559   5.3786   5.4585
     5.5380   5.5517   5.5937   5.6408   5.7857   5.7981   5.8007   5.8324
     6.2787   6.3619   6.3635   6.3835   6.3908   6.5046   6.5146   6.5269
     7.7152   7.8147   7.8284   7.8360   7.8483   7.9037

          k =-0.0087 0.4726 0.0169 ( 17950 PWs)   bands (ev):

    -7.6437  -7.5727  -7.5612  -7.5276  -7.0033  -6.9353  -6.9282  -6.8976
    -6.5115  -6.4631  -6.4532  -6.4136  -6.2835  -6.2095  -6.2048  -6.1796
     0.6094   0.6703   0.6778   0.7235   0.8362   0.9268   0.9826   0.9971
     1.1577   1.2527   1.2864   1.3861   1.5597   1.6489   1.6806   1.7108
     2.1943   2.2686   2.3427   2.3542   2.4318   2.5327   2.5594   2.5792
     2.6170   2.6617   2.6856   2.6905   3.0660   3.1229   3.1430   3.1666
     3.3711   3.4329   3.4505   3.4696   3.5015   3.5315   3.5349   3.5625
     4.4604   4.5226   4.5369   4.5772   4.7180   4.8583   4.9013   5.0348
     5.0669   5.1073   5.1248   5.1659   5.2252   5.3211   5.4279   5.4874
     6.2713   6.3288   6.3421   6.4058   6.9436   7.0078   7.0429   7.0644
     7.9445   7.9955   8.0334   8.0697   8.1613   8.2173

          k =-0.0175 0.9452 0.0338 ( 17869 PWs)   bands (ev):

    -6.7720  -6.7153  -6.7061  -6.6810  -6.6735  -6.6317  -6.6257  -6.5936
    -6.3139  -6.2385  -6.2354  -6.1983  -5.9890  -5.9284  -5.9239  -5.8913
     0.0693   0.1347   0.1395   0.1760   0.4205   0.4706   0.4813   0.5135
     0.9542   1.0491   1.0878   1.1122   1.5246   1.6270   1.6550   1.6758
     1.9052   1.9827   2.0379   2.0539   2.1219   2.2028   2.2547   2.2728
     2.3316   2.3961   2.3998   2.4394   2.8583   2.9138   2.9608   2.9818
     3.1793   3.2243   3.2418   3.2667   3.6508   3.7464   3.7630   3.8126
     3.9584   4.0245   4.0310   4.0674   4.1629   4.2243   4.2704   4.3096
     4.7173   4.8009   4.8208   4.8429   4.9243   5.0058   5.0121   5.0485
     7.2171   7.2539   7.2673   7.3123   7.4864   7.5514   7.5523   7.5799
     7.9962   8.0619   8.1215   8.1442   8.3644   8.4313

          k = 0.3300 0.1902 0.0278 ( 17936 PWs)   bands (ev):

    -7.8454  -7.7733  -7.7625  -7.7292  -7.2191  -7.1575  -7.1513  -7.1162
    -6.8838  -6.8393  -6.8151  -6.7881  -6.4840  -6.3919  -6.3877  -6.3650
     0.3279   0.3973   0.4697   0.4836   0.5764   0.6247   0.6865   0.7362
     1.3824   1.4582   1.4924   1.5194   1.8088   1.9208   1.9670   1.9987
     2.3851   2.4848   2.5444   2.5621   2.7107   2.7546   2.7584   2.7855
     2.9047   2.9816   2.9836   3.0070   3.3749   3.4725   3.5211   3.5582
     3.7771   3.8903   3.9425   3.9786   4.4287   4.5234   4.5807   4.6248
     4.6840   4.7240   4.7267   4.7636   4.9554   4.9770   5.0774   5.1031
     5.1859   5.2056   5.2211   5.2246   5.2465   5.2673   5.3339   5.4447
     6.1156   6.1793   6.1825   6.2116   6.2240   6.2758   6.2809   6.3014
     7.8328   7.9165   7.9451   7.9661   8.2589   8.3212

          k = 0.3212 0.6628 0.0447 ( 17947 PWs)   bands (ev):

    -7.2227  -7.1576  -7.1481  -7.1156  -7.0953  -7.0139  -7.0099  -6.9741
    -6.8902  -6.8453  -6.8248  -6.7987  -6.3368  -6.2594  -6.2548  -6.2314
     0.8370   0.9122   0.9433   0.9748   1.2470   1.3240   1.3594   1.3823
     1.4148   1.4579   1.5146   1.5425   1.6335   1.6763   1.6951   1.7129
     1.7339   1.7690   1.7985   1.8166   2.1817   2.2855   2.3053   2.3261
     2.5890   2.6524   2.6699   2.6863   2.8341   2.8969   2.9323   2.9423
     3.6094   3.6676   3.6820   3.7104   3.9212   3.9944   4.0150   4.0530
     4.0832   4.1422   4.1547   4.1775   4.7553   4.8229   4.9149   4.9540
     5.0079   5.0770   5.1413   5.1657   5.2017   5.2383   5.2423   5.2675
     6.2706   6.2899   6.3240   6.3991   6.6434   6.7034   6.7303   6.7642
     7.8482   7.8865   7.9588   7.9921   8.2111   8.2564

          k = 0.3125 1.1355 0.0615 ( 17869 PWs)   bands (ev):

    -6.8007  -6.7393  -6.7305  -6.6975  -6.6422  -6.5920  -6.5855  -6.5545
    -6.3374  -6.2696  -6.2649  -6.2277  -5.9794  -5.9152  -5.9130  -5.8790
     0.2044   0.2639   0.2724   0.3068   0.6280   0.6986   0.7120   0.7430
     0.9138   0.9804   1.0038   1.0340   1.5473   1.6314   1.6524   1.6855
     1.8718   1.9044   1.9399   1.9895   2.1074   2.1934   2.2080   2.2432
     2.3511   2.4360   2.4477   2.4796   2.6973   2.7483   2.7809   2.8022
     3.1882   3.2504   3.2651   3.2862   3.4393   3.5385   3.5667   3.5925
     3.9895   4.0536   4.0825   4.1135   4.2050   4.3240   4.3593   4.4165
     4.5686   4.6179   4.6534   4.6824   4.7566   4.8394   4.8623   4.9058
     7.2902   7.3373   7.3495   7.3891   7.5723   7.6371   7.6401   7.6656
     7.9582   8.0355   8.1101   8.1209   8.2182   8.2872

          k = 0.3475-0.7550-0.0060 ( 17886 PWs)   bands (ev):

    -6.7987  -6.7383  -6.7217  -6.6916  -6.6647  -6.6088  -6.6030  -6.5754
    -6.3076  -6.2513  -6.2468  -6.2082  -5.9936  -5.9262  -5.9235  -5.8885
     0.6185   0.6712   0.6843   0.7171   0.7400   0.8251   0.8497   0.8835
     0.9378   0.9875   0.9930   1.0287   1.4864   1.5601   1.5698   1.6075
     1.7732   1.8287   1.8511   1.8994   2.1593   2.1900   2.2346   2.2515
     2.2800   2.3356   2.3726   2.3905   2.5545   2.6740   2.6951   2.7326
     3.1413   3.2078   3.2346   3.2434   3.2506   3.2844   3.3148   3.3290
     3.5887   3.6870   3.7183   3.7364   4.1991   4.2964   4.3035   4.3182
     4.6843   4.7245   4.7661   4.7875   4.8565   4.8749   4.9271   4.9576
     7.3523   7.3963   7.4094   7.4483   7.5510   7.6199   7.6238   7.6508
     7.8724   7.9845   8.0019   8.0197   8.0423   8.1127

          k = 0.3387-0.2824 0.0109 ( 17951 PWs)   bands (ev):

    -7.7036  -7.6324  -7.6210  -7.5871  -7.0135  -6.9430  -6.9351  -6.9051
    -6.4274  -6.3807  -6.3708  -6.3301  -6.2689  -6.1972  -6.1928  -6.1673
     0.5037   0.5751   0.5810   0.6192   0.7949   0.8984   0.9698   0.9809
     1.1760   1.2559   1.3107   1.3890   1.5255   1.6024   1.6464   1.6708
     2.1889   2.2527   2.3075   2.3189   2.4673   2.5810   2.6273   2.6427
     2.6809   2.6920   2.7227   2.7271   3.1047   3.1650   3.1725   3.2081
     3.3198   3.3935   3.4172   3.4575   3.5306   3.5978   3.6103   3.6304
     4.3186   4.3887   4.4276   4.4506   4.8548   4.9611   5.0226   5.0465
     5.0771   5.1146   5.1504   5.2125   5.3111   5.4031   5.5072   5.5541
     6.2264   6.2730   6.2928   6.3520   6.9600   7.0308   7.0534   7.0860
     7.9866   8.0344   8.0736   8.1107   8.2074   8.2298

     the Fermi energy is     5.8122 ev

!    total energy              =    -563.38466246 Ry
     Harris-Foulkes estimate   =    -563.38466304 Ry
     estimated scf accuracy    <       0.00000063 Ry

     The total energy is the sum of the following terms:

     one-electron contribution =    -120.65267237 Ry
     hartree contribution      =     139.31758558 Ry
     xc contribution           =    -222.48484579 Ry
     ewald contribution        =    -359.57790288 Ry
     smearing contrib. (-TS)   =       0.01317300 Ry

     convergence has been achieved in  17 iterations

     Forces acting on atoms (cartesian axes, Ry/au):

     atom    1 type  1   force =     0.00277216    0.00149930    0.00070224
     atom    2 type  1   force =     0.00211682    0.00144363    0.00145254
     atom    3 type  1   force =    -0.00182554   -0.00082737    0.00118475
     atom    4 type  1   force =    -0.00211633   -0.00118096   -0.00071127
     atom    5 type  1   force =    -0.00551020   -0.00293987    0.00066571
     atom    6 type  1   force =     0.00247048    0.00114101   -0.00096537
     atom    7 type  1   force =     0.00452607    0.00267688   -0.00157016
     atom    8 type  1   force =    -0.00159290   -0.00117934   -0.00152657
     atom    9 type  2   force =    -0.00106225   -0.00049974   -0.00266378
     atom   10 type  2   force =     0.00129786    0.00079799   -0.00045459
     atom   11 type  2   force =     0.00096061    0.00067678    0.00238419
     atom   12 type  2   force =     0.00119999    0.00034301   -0.00329754
     atom   13 type  2   force =    -0.00317418   -0.00194398    0.00060096
     atom   14 type  2   force =     0.00201175    0.00108573    0.00147899
     atom   15 type  2   force =     0.00378042    0.00264580    0.00160857
     atom   16 type  2   force =     0.00031464    0.00034698    0.00054559
     atom   17 type  2   force =     0.00258854    0.00149238   -0.00137635
     atom   18 type  2   force =    -0.00147516   -0.00132899   -0.00058887
     atom   19 type  2   force =    -0.00412621   -0.00214983   -0.00116197
     atom   20 type  2   force =    -0.00106337   -0.00012009   -0.00008364
     atom   21 type  2   force =     0.00030058    0.00036569    0.00314737
     atom   22 type  2   force =    -0.00205627   -0.00168485   -0.00113977
     atom   23 type  2   force =    -0.00004683   -0.00032586   -0.00083452
     atom   24 type  2   force =    -0.00029067   -0.00033429    0.00260352

     Total force =     0.016035     Total SCF correction =     0.001876
     SCF correction compared to forces is large: reduce conv_thr to get better values
 
     init_run     :      2.32s CPU      2.42s WALL (       1 calls)
     electrons    :     58.91s CPU     60.02s WALL (       1 calls)
     forces       :      1.29s CPU      1.31s WALL (       1 calls)

     Called by init_run:
     wfcinit      :      1.35s CPU      1.40s WALL (       1 calls)
     potinit      :      0.27s CPU      0.27s WALL (       1 calls)
     hinit0       :      0.38s CPU      0.39s WALL (       1 calls)

     Called by electrons:
     c_bands      :     45.42s CPU     46.26s WALL (      17 calls)
     sum_band     :      9.85s CPU     10.05s WALL (      17 calls)
     v_of_rho     :      0.65s CPU      0.68s WALL (      18 calls)
     newd         :      2.47s CPU      2.51s WALL (      18 calls)
     mix_rho      :      0.58s CPU      0.60s WALL (      17 calls)

     Called by c_bands:
     init_us_2    :      1.43s CPU      1.45s WALL (     288 calls)
     cegterg      :     41.57s CPU     42.38s WALL (     136 calls)

     Called by sum_band:
     sum_band:bec :      0.10s CPU      0.10s WALL (     136 calls)
     addusdens    :      4.16s CPU      4.23s WALL (      17 calls)

     Called by *egterg:
     h_psi        :     21.67s CPU     22.29s WALL (     488 calls)
     s_psi        :      3.47s CPU      3.48s WALL (     488 calls)
     g_psi        :      0.08s CPU      0.08s WALL (     344 calls)
     cdiaghg      :     10.20s CPU     10.36s WALL (     480 calls)

     Called by h_psi:
     h_psi:pot    :     21.52s CPU     22.13s WALL (     488 calls)
     h_psi:calbec :      3.95s CPU      4.07s WALL (     488 calls)
     vloc_psi     :     14.20s CPU     14.68s WALL (     488 calls)
     add_vuspsi   :      3.36s CPU      3.37s WALL (     488 calls)

     General routines
     calbec       :      5.75s CPU      5.93s WALL (     656 calls)
     fft          :      0.46s CPU      0.49s WALL (     243 calls)
     ffts         :      0.26s CPU      0.26s WALL (     459 calls)
     fftw         :     15.95s CPU     16.46s WALL (   69318 calls)
     interpolate  :      0.05s CPU      0.06s WALL (      18 calls)
 
     Parallel routines
     fft_scatt_xy :      1.66s CPU      1.71s WALL (   70020 calls)
     fft_scatt_yz :      8.19s CPU      8.49s WALL (   70020 calls)
 
     PWSCF        :   1m 3.27s CPU   1m 4.62s WALL

 
   This run was terminated on:  11:59: 5   8Sep2021            

=------------------------------------------------------------------------------=
   JOB DONE.
=------------------------------------------------------------------------------=
