
     Program PWSCF v.6.4 starts on 24Dec2021 at  1:38:51 

     This program is part of the open-source Quantum ESPRESSO suite
     for quantum simulation of materials; please cite
         "P. Giannozzi et al., J. Phys.:Condens. Matter 21 395502 (2009);
         "P. Giannozzi et al., J. Phys.:Condens. Matter 29 465901 (2017);
          URL http://www.quantum-espresso.org", 
     in publications or presentations arising from this work. More details at
     http://www.quantum-espresso.org/quote

     Parallel version (MPI), running on    40 processors

     MPI processes distributed on     1 nodes
     R & G space division:  proc/nbgrp/npool/nimage =      40
     Waiting for input...
     Reading input from standard input
Warning: card    &IONS ignored
Warning: card      ION_DYNAMICS = 'BFGS' ignored
Warning: card   / ignored
Warning: card    &CELL ignored
Warning: card      CELL_DYNAMICS = 'BFGS', ignored
Warning: card    / ignored

     Current dimensions of program PWSCF are:
     Max number of different atomic species (ntypx) = 10
     Max number of k-points (npk) =  40000
     Max angular momentum in pseudopotentials (lmaxx) =  3

     Subspace diagonalization in iterative solution of the eigenvalue problem:
     one sub-group per band group will be used
     scalapack distributed-memory algorithm (size of sub-group:  4*  4 procs)

 
     Parallelization info
     --------------------
     sticks:   dense  smooth     PW     G-vecs:    dense   smooth      PW
     Min         203     101     28                14889     5262     794
     Max         204     102     29                14894     5266     798
     Sum        8135    4067   1155               595635   210567   31845
 


     bravais-lattice index     =            0
     lattice parameter (alat)  =      15.9296  a.u.
     unit-cell volume          =    5163.7116 (a.u.)^3
     number of atoms/cell      =           33
     number of atomic types    =            2
     number of electrons       =       198.00
     number of Kohn-Sham states=          119
     kinetic-energy cutoff     =      45.0000  Ry
     charge density cutoff     =     360.0000  Ry
     convergence threshold     =      1.0E-06
     mixing beta               =       0.7000
     number of iterations used =            8  local-TF  mixing
     Exchange-correlation      = SLA PW GGX GGC ( 1  4  2  2 0 0)

     celldm(1)=  15.929561  celldm(2)=   0.000000  celldm(3)=   0.000000
     celldm(4)=   0.000000  celldm(5)=   0.000000  celldm(6)=   0.000000

     crystal axes: (cart. coord. in units of alat)
               a(1) = (   1.000000   0.000000   0.000000 )  
               a(2) = (  -0.275411   1.119141   0.000000 )  
               a(3) = (  -0.163321  -0.633717   1.141474 )  

     reciprocal axes: (cart. coord. in units 2 pi/alat)
               b(1) = (  1.000000  0.246092  0.279703 )  
               b(2) = (  0.000000  0.893543  0.496072 )  
               b(3) = (  0.000000  0.000000  0.876060 )  


     PseudoPot. # 1 for Mo read from file:
     ~/pseudo/Mo.pw91-n-van.UPF
     MD5 check sum: Not computed, couldn't open file
     Pseudo is Ultrasoft + core correction, Zval =  6.0
     Generated by new atomic code, or converted to UPF format
     Using radial grid of  965 points,  3 beta functions with: 
                l(1) =   1
                l(2) =   2
                l(3) =   2
     Q(r) pseudized with  8 coefficients,  rinner =    1.000   1.000   1.000
                                                       1.200   1.200

     PseudoPot. # 2 for S  read from file:
     ~/pseudo/S.pw91-van_ak.UPF
     MD5 check sum: Not computed, couldn't open file
     Pseudo is Ultrasoft, Zval =  6.0
     Generated by new atomic code, or converted to UPF format
     Using radial grid of  811 points,  6 beta functions with: 
                l(1) =   0
                l(2) =   0
                l(3) =   1
                l(4) =   1
                l(5) =   2
                l(6) =   2
     Q(r) pseudized with  8 coefficients,  rinner =    1.100   1.100   1.100
                                                       1.100   1.100

     atomic species   valence    mass     pseudopotential
        Mo             6.00    95.50000     Mo( 1.00)
        S              6.00    32.06500     S ( 1.00)

     No symmetry found



   Cartesian axes

     site n.     atom                  positions (alat units)
         1           Mo  tau(   1) = (   0.2771481   0.5013352   0.7130427  )
         2           Mo  tau(   2) = (   0.7533644   0.4045852   0.2348778  )
         3           Mo  tau(   3) = (   0.7300806   0.2224449   0.7213133  )
         4           Mo  tau(   4) = (   0.3758600   0.1126922   0.5979578  )
         5           Mo  tau(   5) = (   0.7480178  -0.4687091   0.9384665  )
         6           Mo  tau(   6) = (  -0.0123564  -0.0048212   0.7808189  )
         7           Mo  tau(   7) = (   0.0791568   0.4015261   0.2760406  )
         8           Mo  tau(   8) = (   0.4177292   0.3785245   0.2973345  )
         9           Mo  tau(   9) = (  -0.1893764  -0.1561155   1.1076168  )
        10           Mo  tau(  10) = (   0.4022434  -0.4752432   0.9854919  )
        11           Mo  tau(  11) = (   0.6134740  -0.0989537   0.7053153  )
        12           S   tau(  12) = (   0.2644052   0.4745360   0.0640119  )
        13           S   tau(  13) = (   0.2375542   0.5913395   0.4248860  )
        14           S   tau(  14) = (  -0.1274507   0.3555876   0.4825412  )
        15           S   tau(  15) = (   0.5704481   0.6211971   0.2766160  )
        16           S   tau(  16) = (  -0.0766665   0.6405483   0.1954168  )
        17           S   tau(  17) = (   0.4765198  -0.1184484   0.4609835  )
        18           S   tau(  18) = (  -0.1337642   0.1195968   0.9923722  )
        19           S   tau(  19) = (   0.2539727  -0.1057423   0.7544701  )
        20           S   tau(  20) = (   0.4506580   0.7399988   0.6677451  )
        21           S   tau(  21) = (  -0.0214922  -0.2732147   0.8971385  )
        22           S   tau(  22) = (   0.5678050  -0.2339476   0.9680842  )
        23           S   tau(  23) = (   0.0421144   0.6579754   0.7252212  )
        24           S   tau(  24) = (   0.8323125  -0.0001968   0.5593725  )
        25           S   tau(  25) = (  -0.2913930   0.4691487   0.9022044  )
        26           S   tau(  26) = (   0.5046399   0.1174828   0.8602804  )
        27           S   tau(  27) = (   0.1403210   0.2372754   0.7063386  )
        28           S   tau(  28) = (   0.2316384   0.1590619   0.3462670  )
        29           S   tau(  29) = (  -0.0578568   0.2086820   0.0915132  )
        30           S   tau(  30) = (   0.5020994   0.3626936   0.5792333  )
        31           S   tau(  31) = (   0.5736554   0.1994695   0.1411267  )
        32           S   tau(  32) = (   0.2982196   0.4343884   0.9894097  )
        33           S   tau(  33) = (   0.1566207  -0.5861005   1.0672452  )

     number of k points=     8  Marzari-Vanderbilt smearing, width (Ry)=  0.0200
                       cart. coord. in units 2pi/alat
        k(    1) = (   0.0000000   0.0000000   0.0000000), wk =   0.2500000
        k(    2) = (   0.0000000   0.0000000  -0.4380302), wk =   0.2500000
        k(    3) = (   0.0000000  -0.4467714  -0.2480361), wk =   0.2500000
        k(    4) = (   0.0000000  -0.4467714  -0.6860663), wk =   0.2500000
        k(    5) = (  -0.5000000  -0.1230458  -0.1398516), wk =   0.2500000
        k(    6) = (  -0.5000000  -0.1230458  -0.5778818), wk =   0.2500000
        k(    7) = (  -0.5000000  -0.5698172  -0.3878877), wk =   0.2500000
        k(    8) = (  -0.5000000  -0.5698172  -0.8259179), wk =   0.2500000

     Dense  grid:   595635 G-vectors     FFT dimensions: ( 100, 120, 128)

     Smooth grid:   210567 G-vectors     FFT dimensions: (  72,  80,  90)

     Estimated max dynamical RAM per process >      98.29 MB

     Estimated total dynamical RAM >       3.84 GB

     Initial potential from superposition of free atoms

     starting charge  197.98265, renormalised to  198.00000
     Starting wfcs are  187 randomized atomic wfcs

     total cpu time spent up to now is        5.6 secs

     Self-consistent Calculation

     iteration #  1     ecut=    45.00 Ry     beta= 0.70
     Davidson diagonalization with overlap
     ethr =  1.00E-02,  avg # of iterations =  2.0

     total cpu time spent up to now is       14.4 secs

     total energy              =    -772.48610389 Ry
     Harris-Foulkes estimate   =    -775.19420493 Ry
     estimated scf accuracy    <       7.14810993 Ry

     iteration #  2     ecut=    45.00 Ry     beta= 0.70
     Davidson diagonalization with overlap
     ethr =  3.61E-03,  avg # of iterations =  2.0

     total cpu time spent up to now is       22.6 secs

     total energy              =    -773.65918940 Ry
     Harris-Foulkes estimate   =    -774.08128398 Ry
     estimated scf accuracy    <       2.11367118 Ry

     iteration #  3     ecut=    45.00 Ry     beta= 0.70
     Davidson diagonalization with overlap
     ethr =  1.07E-03,  avg # of iterations =  1.1

     total cpu time spent up to now is       29.2 secs

     total energy              =    -773.83907767 Ry
     Harris-Foulkes estimate   =    -773.89794223 Ry
     estimated scf accuracy    <       0.43239269 Ry

     iteration #  4     ecut=    45.00 Ry     beta= 0.70
     Davidson diagonalization with overlap
     ethr =  2.18E-04,  avg # of iterations =  2.0

     total cpu time spent up to now is       36.1 secs

     total energy              =    -773.86130042 Ry
     Harris-Foulkes estimate   =    -773.88493648 Ry
     estimated scf accuracy    <       0.09444105 Ry

     iteration #  5     ecut=    45.00 Ry     beta= 0.70
     Davidson diagonalization with overlap
     ethr =  4.77E-05,  avg # of iterations =  6.8

     total cpu time spent up to now is       48.9 secs

     total energy              =    -773.87891046 Ry
     Harris-Foulkes estimate   =    -773.88848095 Ry
     estimated scf accuracy    <       0.05729907 Ry

     iteration #  6     ecut=    45.00 Ry     beta= 0.70
     Davidson diagonalization with overlap
     ethr =  2.89E-05,  avg # of iterations =  2.0

     total cpu time spent up to now is       55.9 secs

     total energy              =    -773.88137434 Ry
     Harris-Foulkes estimate   =    -773.88345185 Ry
     estimated scf accuracy    <       0.01228397 Ry

     iteration #  7     ecut=    45.00 Ry     beta= 0.70
     Davidson diagonalization with overlap
     c_bands:  1 eigenvalues not converged
     ethr =  6.20E-06,  avg # of iterations =  6.2

     total cpu time spent up to now is       64.9 secs

     total energy              =    -773.88211981 Ry
     Harris-Foulkes estimate   =    -773.88261838 Ry
     estimated scf accuracy    <       0.00240567 Ry

     iteration #  8     ecut=    45.00 Ry     beta= 0.70
     Davidson diagonalization with overlap
     ethr =  1.21E-06,  avg # of iterations =  5.6

     total cpu time spent up to now is       78.1 secs

     total energy              =    -773.88246519 Ry
     Harris-Foulkes estimate   =    -773.88280265 Ry
     estimated scf accuracy    <       0.00168903 Ry

     iteration #  9     ecut=    45.00 Ry     beta= 0.70
     Davidson diagonalization with overlap
     ethr =  8.53E-07,  avg # of iterations =  1.0

     total cpu time spent up to now is       85.1 secs

     total energy              =    -773.88254279 Ry
     Harris-Foulkes estimate   =    -773.88260824 Ry
     estimated scf accuracy    <       0.00041824 Ry

     iteration # 10     ecut=    45.00 Ry     beta= 0.70
     Davidson diagonalization with overlap
     ethr =  2.11E-07,  avg # of iterations =  1.2

     total cpu time spent up to now is       91.7 secs

     total energy              =    -773.88254542 Ry
     Harris-Foulkes estimate   =    -773.88257428 Ry
     estimated scf accuracy    <       0.00012720 Ry

     iteration # 11     ecut=    45.00 Ry     beta= 0.70
     Davidson diagonalization with overlap
     ethr =  6.42E-08,  avg # of iterations =  2.5

     total cpu time spent up to now is       99.0 secs

     total energy              =    -773.88255409 Ry
     Harris-Foulkes estimate   =    -773.88256266 Ry
     estimated scf accuracy    <       0.00005182 Ry

     iteration # 12     ecut=    45.00 Ry     beta= 0.70
     Davidson diagonalization with overlap
     ethr =  2.62E-08,  avg # of iterations =  2.9

     total cpu time spent up to now is      106.7 secs

     total energy              =    -773.88255925 Ry
     Harris-Foulkes estimate   =    -773.88256126 Ry
     estimated scf accuracy    <       0.00000738 Ry

     iteration # 13     ecut=    45.00 Ry     beta= 0.70
     Davidson diagonalization with overlap
     ethr =  3.73E-09,  avg # of iterations =  4.0

     total cpu time spent up to now is      117.3 secs

     total energy              =    -773.88256031 Ry
     Harris-Foulkes estimate   =    -773.88256181 Ry
     estimated scf accuracy    <       0.00000839 Ry

     iteration # 14     ecut=    45.00 Ry     beta= 0.70
     Davidson diagonalization with overlap
     ethr =  3.73E-09,  avg # of iterations =  1.0

     total cpu time spent up to now is      123.6 secs

     End of self-consistent calculation

          k = 0.0000 0.0000 0.0000 ( 26309 PWs)   bands (ev):

    -9.4065  -8.6835  -8.2246  -7.9562  -7.9020  -7.7604  -7.6697  -7.6005
    -7.4583  -7.4224  -7.3668  -7.2634  -7.2102  -7.1934  -7.0632  -7.0385
    -6.8947  -6.7599  -6.6461  -6.4587  -6.3832  -5.6108  -0.6609  -0.3916
    -0.2808  -0.2342  -0.1237  -0.0506   0.0719   0.1421   0.2389   0.2794
     0.4080   0.4711   0.5086   0.6151   0.6954   0.7563   0.7759   0.7969
     0.9038   0.9938   1.0756   1.1065   1.1710   1.2349   1.2880   1.3172
     1.3735   1.4377   1.5115   1.5407   1.6372   1.6652   1.7355   1.7783
     1.8161   1.8886   2.0146   2.1191   2.2243   2.2814   2.3397   2.4485
     2.5114   2.5588   2.7020   2.7682   2.8150   2.8483   2.9746   3.0837
     3.1611   3.2056   3.3164   3.4253   3.5213   3.6531   3.7459   3.7800
     3.8875   3.9306   3.9363   4.0045   4.1659   4.2309   4.3238   4.3674
     4.4327   4.5783   4.6115   4.7164   4.8340   4.9374   5.2212   5.2693
     5.3513   5.4000   5.4997   5.5604   5.7504   5.8450   5.8959   5.9540
     5.9836   6.1469   6.2100   6.2937   6.3937   6.4300   6.5028   6.6016
     6.7162   6.8391   6.8945   7.0815   7.1212   7.2053   7.2871

          k = 0.0000 0.0000-0.4380 ( 26306 PWs)   bands (ev):

    -9.3993  -8.6067  -8.4194  -7.9394  -7.8533  -7.7493  -7.6765  -7.6013
    -7.4376  -7.3996  -7.3443  -7.2602  -7.2527  -7.1264  -7.0699  -7.0019
    -6.9139  -6.7476  -6.6862  -6.5012  -6.3712  -5.6159  -0.6159  -0.5008
    -0.2952  -0.2317  -0.1338  -0.0263   0.0807   0.1269   0.2247   0.2827
     0.4967   0.5145   0.5383   0.5724   0.6548   0.6968   0.7434   0.7900
     0.9037   1.0226   1.0390   1.1066   1.1611   1.2158   1.2456   1.3015
     1.3583   1.4392   1.5378   1.5925   1.6435   1.6604   1.7285   1.8990
     1.9357   1.9518   2.0272   2.1604   2.1734   2.2867   2.3504   2.4925
     2.5443   2.6319   2.6696   2.6783   2.7443   2.9276   3.0106   3.0633
     3.1455   3.2552   3.3281   3.4226   3.4925   3.6111   3.6401   3.7424
     3.8201   3.9348   4.0001   4.0120   4.0621   4.1663   4.3493   4.3928
     4.4712   4.5483   4.6516   4.7191   4.7625   4.9589   5.1766   5.1898
     5.3039   5.4503   5.4667   5.6638   5.6766   5.7525   5.8704   5.9507
     5.9963   6.1492   6.1791   6.3300   6.3540   6.4901   6.5804   6.6816
     6.7762   6.7888   6.9287   7.0484   7.1443   7.2432   7.3613

          k = 0.0000-0.4468-0.2480 ( 26306 PWs)   bands (ev):

    -9.3862  -8.6336  -8.3693  -8.0043  -7.8954  -7.7496  -7.6951  -7.5458
    -7.4262  -7.3976  -7.3857  -7.2555  -7.2102  -7.1827  -7.0559  -7.0212
    -6.7775  -6.7632  -6.6931  -6.5056  -6.3915  -5.6144  -0.5308  -0.4892
    -0.3216  -0.2625  -0.1870  -0.1120   0.0842   0.1320   0.1709   0.2451
     0.3843   0.4127   0.5325   0.5983   0.6374   0.6764   0.7435   0.8495
     0.9212   0.9980   1.0964   1.1319   1.1820   1.2630   1.3076   1.3595
     1.4065   1.5081   1.5484   1.6012   1.6245   1.7055   1.7601   1.8676
     1.9132   1.9644   2.0605   2.1492   2.2393   2.2951   2.4431   2.4701
     2.5732   2.6103   2.6533   2.7154   2.8284   2.9096   2.9380   3.0556
     3.1464   3.1713   3.2669   3.4106   3.4841   3.5905   3.7225   3.7556
     3.7690   3.8173   3.8417   4.0310   4.0828   4.2197   4.2633   4.4832
     4.4938   4.5814   4.6346   4.7172   4.7791   4.9362   5.0813   5.2421
     5.2805   5.4134   5.4903   5.6557   5.7352   5.8335   5.9064   5.9494
     6.0753   6.1859   6.2328   6.3013   6.3647   6.4685   6.4778   6.6590
     6.6769   6.8030   6.8765   7.0420   7.1946   7.2806   7.3350

          k = 0.0000-0.4468-0.6861 ( 26294 PWs)   bands (ev):

    -9.3909  -8.5305  -8.5180  -7.9579  -7.8512  -7.7811  -7.6595  -7.5026
    -7.4863  -7.3813  -7.3585  -7.2750  -7.2350  -7.1419  -7.0637  -7.0483
    -6.9476  -6.7546  -6.6104  -6.4586  -6.3963  -5.6094  -0.5863  -0.4789
    -0.3129  -0.2727  -0.1777  -0.0779   0.0308   0.1126   0.2213   0.3015
     0.4098   0.4691   0.5427   0.6010   0.6822   0.7387   0.7559   0.7996
     0.8942   0.9561   1.0642   1.1268   1.1840   1.2692   1.3250   1.3514
     1.3740   1.4963   1.5182   1.5864   1.6141   1.7006   1.7413   1.8319
     1.9103   2.0005   2.0742   2.1479   2.1898   2.2790   2.3223   2.4265
     2.4817   2.5380   2.6688   2.7455   2.8595   2.9254   2.9975   3.1545
     3.1896   3.2747   3.3523   3.3811   3.4744   3.5521   3.5919   3.7270
     3.8089   3.8751   3.9317   4.0188   4.1039   4.2096   4.3450   4.4023
     4.5014   4.5680   4.6999   4.7235   4.7445   4.8059   5.1228   5.1897
     5.3495   5.4936   5.5291   5.6877   5.7749   5.8398   5.9269   6.0103
     6.0380   6.1346   6.1895   6.2383   6.3228   6.4918   6.5710   6.6282
     6.7451   6.8464   6.9702   7.0460   7.0953   7.2142   7.3357

          k =-0.5000-0.1230-0.1399 ( 26346 PWs)   bands (ev):

    -9.3670  -8.5949  -8.3296  -8.0723  -7.8527  -7.7371  -7.6959  -7.6668
    -7.4894  -7.4501  -7.3659  -7.3008  -7.2225  -7.1727  -7.0659  -6.9328
    -6.7928  -6.7301  -6.6849  -6.4565  -6.3634  -5.6075  -0.6233  -0.3354
    -0.3038  -0.2680  -0.1365  -0.0927   0.0755   0.1438   0.2046   0.3148
     0.3803   0.4485   0.5666   0.5999   0.6627   0.7458   0.8165   0.8248
     0.9498   0.9542   1.0531   1.0734   1.1353   1.2043   1.2615   1.3414
     1.3568   1.4006   1.4463   1.5439   1.6172   1.6893   1.7631   1.7924
     1.9200   1.9633   2.0214   2.1168   2.2480   2.2844   2.3717   2.4971
     2.5148   2.6318   2.7278   2.7938   2.8772   2.9324   2.9854   3.0397
     3.1492   3.2153   3.3114   3.3580   3.4119   3.5381   3.5779   3.7192
     3.8006   3.8507   3.9937   4.0155   4.1406   4.2417   4.2790   4.3469
     4.4484   4.5359   4.6536   4.7921   4.9636   5.0511   5.1873   5.2747
     5.3330   5.4005   5.5206   5.5671   5.7055   5.7783   5.8040   5.9984
     6.0256   6.0863   6.2100   6.3099   6.3572   6.3778   6.5274   6.5999
     6.7006   6.8488   6.8626   6.9785   7.1252   7.2967   7.3280

          k =-0.5000-0.1230-0.5779 ( 26338 PWs)   bands (ev):

    -9.3680  -8.5832  -8.3001  -8.0961  -7.9308  -7.7384  -7.6732  -7.6512
    -7.5586  -7.4422  -7.2857  -7.2571  -7.1820  -7.1193  -7.0689  -7.0139
    -6.9012  -6.7852  -6.5757  -6.4932  -6.3134  -5.6077  -0.6222  -0.4677
    -0.3016  -0.2584  -0.1894  -0.0678   0.0295   0.1313   0.2671   0.3022
     0.4159   0.4242   0.5231   0.6250   0.7353   0.7784   0.8113   0.8579
     0.9049   1.0130   1.0896   1.0942   1.1304   1.1814   1.2826   1.3512
     1.4021   1.4817   1.5380   1.6024   1.6474   1.6973   1.7802   1.8186
     1.8444   1.9201   1.9888   2.0604   2.2221   2.2741   2.3663   2.4309
     2.4888   2.6201   2.7048   2.7278   2.8071   2.8689   2.9310   3.0187
     3.1247   3.2261   3.2915   3.3516   3.4443   3.6048   3.6468   3.7203
     3.7839   3.9866   4.0210   4.0787   4.2160   4.2691   4.3035   4.3732
     4.4077   4.5507   4.5661   4.7203   4.9104   5.0077   5.1016   5.1680
     5.3676   5.4323   5.5357   5.6457   5.7662   5.7969   5.8453   5.9409
     6.0395   6.1493   6.1851   6.2528   6.3181   6.4939   6.5653   6.6729
     6.7530   6.8284   6.8756   6.9215   7.1024   7.2538   7.3836

          k =-0.5000-0.5698-0.3879 ( 26318 PWs)   bands (ev):

    -9.3633  -8.5048  -8.4305  -8.0708  -7.8778  -7.7771  -7.6692  -7.5996
    -7.5443  -7.4606  -7.3835  -7.3274  -7.1858  -7.1144  -7.0672  -6.9165
    -6.8848  -6.7663  -6.6143  -6.4461  -6.3236  -5.6013  -0.6918  -0.4462
    -0.3359  -0.2530  -0.1053  -0.0320   0.0163   0.1256   0.1774   0.2639
     0.3232   0.4409   0.5358   0.5630   0.6924   0.7546   0.8030   0.8462
     0.9907   1.0295   1.0496   1.1047   1.1827   1.2002   1.2338   1.3367
     1.4040   1.4824   1.5019   1.5659   1.6385   1.6847   1.7782   1.7952
     1.9369   1.9699   2.1162   2.1943   2.2316   2.3787   2.4125   2.4619
     2.5776   2.6388   2.7023   2.7701   2.8687   2.9343   2.9725   3.0718
     3.1510   3.2175   3.2951   3.3705   3.4182   3.4889   3.5924   3.6634
     3.7517   3.7924   3.8897   3.9252   4.0837   4.1415   4.2999   4.3546
     4.4967   4.5548   4.6023   4.8098   4.9068   5.0792   5.1485   5.2074
     5.2746   5.4159   5.5571   5.6148   5.6594   5.7950   5.8927   5.9363
     6.0610   6.1188   6.2664   6.3266   6.3865   6.5051   6.5720   6.5995
     6.6762   6.7572   6.8547   6.9567   7.1891   7.2969   7.3257

          k =-0.5000-0.5698-0.8259 ( 26350 PWs)   bands (ev):

    -9.3621  -8.4687  -8.4392  -8.0962  -7.9857  -7.7781  -7.6469  -7.5690
    -7.5358  -7.4161  -7.3853  -7.2505  -7.1782  -7.1143  -7.0844  -7.0157
    -6.7748  -6.7299  -6.7214  -6.4087  -6.3713  -5.6015  -0.6442  -0.5006
    -0.3328  -0.2491  -0.1718  -0.0783   0.1206   0.2036   0.2573   0.2806
     0.3532   0.4353   0.4753   0.5546   0.6324   0.7051   0.7515   0.8765
     0.9415   0.9997   1.0478   1.1197   1.1652   1.2063   1.2723   1.3276
     1.4121   1.4879   1.5854   1.6362   1.6821   1.7669   1.7905   1.8197
     1.8589   1.9348   2.0990   2.1360   2.2060   2.2310   2.3997   2.4924
     2.5528   2.5784   2.7202   2.7713   2.9125   2.9267   2.9732   3.0521
     3.1157   3.2014   3.2888   3.3541   3.4346   3.5094   3.6065   3.6794
     3.7622   3.7793   3.8796   4.0374   4.0923   4.1647   4.3243   4.4146
     4.5219   4.5918   4.6700   4.7479   4.8137   4.9688   5.1552   5.1688
     5.2406   5.4871   5.5389   5.6345   5.6957   5.7560   5.9252   5.9955
     6.1084   6.1234   6.2884   6.3639   6.4136   6.4856   6.5226   6.6132
     6.6383   6.7512   6.8555   7.0251   7.1871   7.2472   7.4062

     the Fermi energy is     5.5734 ev

!    total energy              =    -773.88256027 Ry
     Harris-Foulkes estimate   =    -773.88256086 Ry
     estimated scf accuracy    <       0.00000068 Ry

     The total energy is the sum of the following terms:

     one-electron contribution =    -198.63837943 Ry
     hartree contribution      =     203.29619646 Ry
     xc contribution           =    -305.49986526 Ry
     ewald contribution        =    -473.03721282 Ry
     smearing contrib. (-TS)   =      -0.00329922 Ry

     convergence has been achieved in  14 iterations

     Forces acting on atoms (cartesian axes, Ry/au):

     atom    1 type  1   force =    -0.03843188    0.04446277   -0.02138520
     atom    2 type  1   force =    -0.01637036    0.02431494    0.00620569
     atom    3 type  1   force =    -0.01466824   -0.03631540    0.02872742
     atom    4 type  1   force =     0.02110782   -0.02275276   -0.00119003
     atom    5 type  1   force =     0.03374157    0.01345833   -0.00853942
     atom    6 type  1   force =     0.02422835   -0.02601398    0.05473517
     atom    7 type  1   force =     0.00197405    0.00352795   -0.02987879
     atom    8 type  1   force =    -0.00053275    0.01631253    0.01143652
     atom    9 type  1   force =     0.03658041    0.01534627    0.00915612
     atom   10 type  1   force =    -0.01029410    0.00391226   -0.00330882
     atom   11 type  1   force =    -0.01698343    0.02484435   -0.02346903
     atom   12 type  2   force =    -0.00713890   -0.00423665    0.01687012
     atom   13 type  2   force =    -0.00198196   -0.03617658    0.00056889
     atom   14 type  2   force =    -0.00777332    0.01138252   -0.02689854
     atom   15 type  2   force =     0.02620662   -0.05092708   -0.00021076
     atom   16 type  2   force =    -0.00989658   -0.02228384   -0.00604913
     atom   17 type  2   force =     0.01142656    0.01444480    0.02974359
     atom   18 type  2   force =    -0.01755163    0.01962835   -0.02078052
     atom   19 type  2   force =    -0.01927595    0.01214916   -0.00629579
     atom   20 type  2   force =    -0.01774304   -0.02323315    0.00770569
     atom   21 type  2   force =    -0.01077147    0.01406648   -0.00062015
     atom   22 type  2   force =    -0.00236399   -0.00681950    0.00241890
     atom   23 type  2   force =     0.01023042   -0.00893905    0.00354330
     atom   24 type  2   force =    -0.01380991    0.00482914   -0.02706328
     atom   25 type  2   force =    -0.01829411    0.00080456   -0.02292601
     atom   26 type  2   force =     0.01664765    0.00613768   -0.00562390
     atom   27 type  2   force =    -0.01805401   -0.01146891    0.00756142
     atom   28 type  2   force =    -0.00236321    0.00206156    0.00227373
     atom   29 type  2   force =    -0.00018927    0.01718741   -0.00553200
     atom   30 type  2   force =     0.03110057    0.02820082   -0.00488672
     atom   31 type  2   force =     0.00313985    0.01923226   -0.00336806
     atom   32 type  2   force =     0.02937919   -0.03881496    0.02715143
     atom   33 type  2   force =    -0.00127496   -0.00832228    0.00992817

     Total force =     0.194123     Total SCF correction =     0.001497
 
     init_run     :      4.75s CPU      4.90s WALL (       1 calls)
     electrons    :    115.11s CPU    118.01s WALL (       1 calls)
     forces       :      2.62s CPU      2.70s WALL (       1 calls)

     Called by init_run:
     wfcinit      :      3.17s CPU      3.24s WALL (       1 calls)
     potinit      :      0.42s CPU      0.42s WALL (       1 calls)
     hinit0       :      0.54s CPU      0.56s WALL (       1 calls)

     Called by electrons:
     c_bands      :     92.82s CPU     94.13s WALL (      14 calls)
     sum_band     :     17.04s CPU     18.09s WALL (      14 calls)
     v_of_rho     :      1.14s CPU      1.19s WALL (      15 calls)
     newd         :      3.18s CPU      3.62s WALL (      15 calls)
     mix_rho      :      1.06s CPU      1.13s WALL (      14 calls)

     Called by c_bands:
     init_us_2    :      2.68s CPU      2.72s WALL (     240 calls)
     cegterg      :     86.37s CPU     87.62s WALL (     112 calls)

     Called by sum_band:
     sum_band:bec :      0.16s CPU      0.16s WALL (     112 calls)
     addusdens    :      5.05s CPU      5.84s WALL (      14 calls)

     Called by *egterg:
     h_psi        :     49.73s CPU     50.63s WALL (     443 calls)
     s_psi        :      8.15s CPU      8.16s WALL (     443 calls)
     g_psi        :      0.20s CPU      0.20s WALL (     323 calls)
     cdiaghg      :     16.16s CPU     16.46s WALL (     435 calls)

     Called by h_psi:
     h_psi:pot    :     49.22s CPU     50.12s WALL (     443 calls)
     h_psi:calbec :      9.49s CPU      9.80s WALL (     443 calls)
     vloc_psi     :     31.48s CPU     32.04s WALL (     443 calls)
     add_vuspsi   :      8.24s CPU      8.27s WALL (     443 calls)

     General routines
     calbec       :     14.14s CPU     14.61s WALL (     587 calls)
     fft          :      0.94s CPU      1.03s WALL (     204 calls)
     ffts         :      0.50s CPU      0.55s WALL (     460 calls)
     fftw         :     35.10s CPU     35.69s WALL (   79380 calls)
     interpolate  :      0.10s CPU      0.10s WALL (      15 calls)
 
     Parallel routines
     fft_scatt_xy :      3.18s CPU      3.24s WALL (   80044 calls)
     fft_scatt_yz :     16.61s CPU     17.01s WALL (   80044 calls)
 
     PWSCF        :   2m 3.15s CPU   2m 6.44s WALL

 
   This run was terminated on:   1:40:57  24Dec2021            

=------------------------------------------------------------------------------=
   JOB DONE.
=------------------------------------------------------------------------------=
