
     Program PWSCF v.6.4 starts on  3Dec2021 at 21:14:59 

     This program is part of the open-source Quantum ESPRESSO suite
     for quantum simulation of materials; please cite
         "P. Giannozzi et al., J. Phys.:Condens. Matter 21 395502 (2009);
         "P. Giannozzi et al., J. Phys.:Condens. Matter 29 465901 (2017);
          URL http://www.quantum-espresso.org", 
     in publications or presentations arising from this work. More details at
     http://www.quantum-espresso.org/quote

     Parallel version (MPI), running on    40 processors

     MPI processes distributed on     1 nodes
     R & G space division:  proc/nbgrp/npool/nimage =      40
     Waiting for input...
     Reading input from standard input
Warning: card    &IONS ignored
Warning: card      ION_DYNAMICS = 'BFGS' ignored
Warning: card   / ignored
Warning: card    &CELL ignored
Warning: card      CELL_DYNAMICS = 'BFGS', ignored
Warning: card    / ignored

     Current dimensions of program PWSCF are:
     Max number of different atomic species (ntypx) = 10
     Max number of k-points (npk) =  40000
     Max angular momentum in pseudopotentials (lmaxx) =  3

     Subspace diagonalization in iterative solution of the eigenvalue problem:
     one sub-group per band group will be used
     scalapack distributed-memory algorithm (size of sub-group:  4*  4 procs)

 
     Parallelization info
     --------------------
     sticks:   dense  smooth     PW     G-vecs:    dense   smooth      PW
     Min         183      91     24                20547     7259    1003
     Max         184      92     25                20555     7265    1011
     Sum        7351    3657    985               822067   290459   40263
 


     bravais-lattice index     =            0
     lattice parameter (alat)  =      12.1648  a.u.
     unit-cell volume          =    7126.2659 (a.u.)^3
     number of atoms/cell      =           36
     number of atomic types    =            2
     number of electrons       =       216.00
     number of Kohn-Sham states=          130
     kinetic-energy cutoff     =      45.0000  Ry
     charge density cutoff     =     360.0000  Ry
     convergence threshold     =      1.0E-06
     mixing beta               =       0.7000
     number of iterations used =            8  local-TF  mixing
     Exchange-correlation      = SLA PW GGX GGC ( 1  4  2  2 0 0)

     celldm(1)=  12.164809  celldm(2)=   0.000000  celldm(3)=   0.000000
     celldm(4)=   0.000000  celldm(5)=   0.000000  celldm(6)=   0.000000

     crystal axes: (cart. coord. in units of alat)
               a(1) = (   1.000000   0.000000   0.000000 )  
               a(2) = (   0.005799   1.732918   0.000000 )  
               a(3) = (  -0.052872  -0.728698   2.284378 )  

     reciprocal axes: (cart. coord. in units 2 pi/alat)
               b(1) = (  1.000000 -0.003347  0.022077 )  
               b(2) = (  0.000000  0.577061  0.184078 )  
               b(3) = (  0.000000  0.000000  0.437756 )  


     PseudoPot. # 1 for Mo read from file:
     ~/pseudo/Mo.pw91-n-van.UPF
     MD5 check sum: Not computed, couldn't open file
     Pseudo is Ultrasoft + core correction, Zval =  6.0
     Generated by new atomic code, or converted to UPF format
     Using radial grid of  965 points,  3 beta functions with: 
                l(1) =   1
                l(2) =   2
                l(3) =   2
     Q(r) pseudized with  8 coefficients,  rinner =    1.000   1.000   1.000
                                                       1.200   1.200

     PseudoPot. # 2 for S  read from file:
     ~/pseudo/S.pw91-van_ak.UPF
     MD5 check sum: Not computed, couldn't open file
     Pseudo is Ultrasoft, Zval =  6.0
     Generated by new atomic code, or converted to UPF format
     Using radial grid of  811 points,  6 beta functions with: 
                l(1) =   0
                l(2) =   0
                l(3) =   1
                l(4) =   1
                l(5) =   2
                l(6) =   2
     Q(r) pseudized with  8 coefficients,  rinner =    1.100   1.100   1.100
                                                       1.100   1.100

     atomic species   valence    mass     pseudopotential
        Mo             6.00    95.50000     Mo( 1.00)
        S              6.00    32.06500     S ( 1.00)

     No symmetry found



   Cartesian axes

     site n.     atom                  positions (alat units)
         1           Mo  tau(   1) = (  -0.0043019   0.8589545   0.7490520  )
         2           Mo  tau(   2) = (   0.2449941   1.2939435   0.7490866  )
         3           Mo  tau(   3) = (   0.4963014   0.8600140   0.7489798  )
         4           Mo  tau(   4) = (   0.7461008   1.2960731   0.7500001  )
         5           Mo  tau(   5) = (   0.4923387  -0.0046015   0.7496097  )
         6           Mo  tau(   6) = (  -0.0096765  -0.0042002   0.7492552  )
         7           Mo  tau(   7) = (   0.7422506   0.4292373   0.7508383  )
         8           Mo  tau(   8) = (   0.2421191   0.4301084   0.7518887  )
         9           Mo  tau(   9) = (   0.1444544  -0.5520225   2.0323608  )
        10           Mo  tau(  10) = (   0.7065450  -0.5866689   1.9512239  )
        11           Mo  tau(  11) = (   0.3600648   0.9016498   1.7802188  )
        12           Mo  tau(  12) = (   0.9639703   0.7915099   1.9115882  )
        13           S   tau(  13) = (   0.2463324   1.0040053   0.5028694  )
        14           S   tau(  14) = (  -0.0073659   0.5706979   0.5030451  )
        15           S   tau(  15) = (   0.7471219   1.0080904   0.5043274  )
        16           S   tau(  16) = (   0.4917594   0.5715587   0.5037519  )
        17           S   tau(  17) = (   0.0242572   1.0859560   1.7063624  )
        18           S   tau(  18) = (   0.4392824   0.9585991   2.1348575  )
        19           S   tau(  19) = (   0.2460474   1.0026378   0.9928353  )
        20           S   tau(  20) = (  -0.0079788   0.5723209   0.9983521  )
        21           S   tau(  21) = (   0.7471410   1.0058512   0.9940017  )
        22           S   tau(  22) = (   0.4924792   0.5734251   0.9973596  )
        23           S   tau(  23) = (   0.2150841   0.5578573   1.8015522  )
        24           S   tau(  24) = (   0.6860646   0.7215982   1.6903143  )
        25           S   tau(  25) = (   0.4944775   1.4395252   0.5048978  )
        26           S   tau(  26) = (   0.9959867   1.4403436   0.5030496  )
        27           S   tau(  27) = (   0.4881303  -0.2939159   0.9956053  )
        28           S   tau(  28) = (  -0.0093034  -0.2926098   0.9944302  )
        29           S   tau(  29) = (   0.7418249   0.1404988   0.9953126  )
        30           S   tau(  30) = (   0.2415382   0.1389623   0.9941292  )
        31           S   tau(  31) = (   0.9233371   0.9551524   2.2336744  )
        32           S   tau(  32) = (   0.5137011  -0.5170734   1.6247919  )
        33           S   tau(  33) = (   0.7408186   0.1425908   0.5033524  )
        34           S   tau(  34) = (   0.2423870   0.1418373   0.5069137  )
        35           S   tau(  35) = (   0.8881423  -0.2806166   2.0654719  )
        36           S   tau(  36) = (   0.4069001  -0.3166210   1.8593465  )

     number of k points=     4  Marzari-Vanderbilt smearing, width (Ry)=  0.0200
                       cart. coord. in units 2pi/alat
        k(    1) = (   0.0000000   0.0000000   0.0000000), wk =   0.3333333
        k(    2) = (   0.0000000  -0.2885306  -0.0920389), wk =   0.3333333
        k(    3) = (   0.3333333  -0.0011155   0.0073591), wk =   0.6666667
        k(    4) = (   0.3333333  -0.2896461  -0.0846797), wk =   0.6666667

     Dense  grid:   822067 G-vectors     FFT dimensions: (  75, 128, 180)

     Smooth grid:   290459 G-vectors     FFT dimensions: (  54,  96, 125)

     Estimated max dynamical RAM per process >     127.29 MB

     Estimated total dynamical RAM >       4.97 GB

     Initial potential from superposition of free atoms

     starting charge  215.98107, renormalised to  216.00000
     Starting wfcs are  204 randomized atomic wfcs

     total cpu time spent up to now is        5.3 secs

     Self-consistent Calculation

     iteration #  1     ecut=    45.00 Ry     beta= 0.70
     Davidson diagonalization with overlap
     ethr =  1.00E-02,  avg # of iterations =  2.0

     total cpu time spent up to now is       12.1 secs

     total energy              =    -843.81207638 Ry
     Harris-Foulkes estimate   =    -846.34272568 Ry
     estimated scf accuracy    <       6.52545177 Ry

     iteration #  2     ecut=    45.00 Ry     beta= 0.70
     Davidson diagonalization with overlap
     ethr =  3.02E-03,  avg # of iterations =  2.5

     total cpu time spent up to now is       18.3 secs

     total energy              =    -844.95031515 Ry
     Harris-Foulkes estimate   =    -845.17120338 Ry
     estimated scf accuracy    <       1.14277776 Ry

     iteration #  3     ecut=    45.00 Ry     beta= 0.70
     Davidson diagonalization with overlap
     ethr =  5.29E-04,  avg # of iterations =  2.0

     total cpu time spent up to now is       23.8 secs

     total energy              =    -845.02594991 Ry
     Harris-Foulkes estimate   =    -845.07726093 Ry
     estimated scf accuracy    <       0.30351871 Ry

     iteration #  4     ecut=    45.00 Ry     beta= 0.70
     Davidson diagonalization with overlap
     ethr =  1.41E-04,  avg # of iterations =  3.0

     total cpu time spent up to now is       29.8 secs

     total energy              =    -845.03078366 Ry
     Harris-Foulkes estimate   =    -845.06243186 Ry
     estimated scf accuracy    <       0.09331110 Ry

     iteration #  5     ecut=    45.00 Ry     beta= 0.70
     Davidson diagonalization with overlap
     c_bands:  1 eigenvalues not converged
     ethr =  4.32E-05,  avg # of iterations = 12.0

     total cpu time spent up to now is       40.4 secs

     total energy              =    -845.04679600 Ry
     Harris-Foulkes estimate   =    -845.05010064 Ry
     estimated scf accuracy    <       0.01438173 Ry

     iteration #  6     ecut=    45.00 Ry     beta= 0.70
     Davidson diagonalization with overlap
     c_bands:  4 eigenvalues not converged
     ethr =  6.66E-06,  avg # of iterations = 12.5

     total cpu time spent up to now is       50.3 secs

     total energy              =    -845.04714206 Ry
     Harris-Foulkes estimate   =    -845.04844226 Ry
     estimated scf accuracy    <       0.00306088 Ry

     iteration #  7     ecut=    45.00 Ry     beta= 0.70
     Davidson diagonalization with overlap
     ethr =  1.42E-06,  avg # of iterations =  9.2

     total cpu time spent up to now is       58.9 secs

     total energy              =    -845.04692497 Ry
     Harris-Foulkes estimate   =    -845.04756791 Ry
     estimated scf accuracy    <       0.00151487 Ry

     iteration #  8     ecut=    45.00 Ry     beta= 0.70
     Davidson diagonalization with overlap
     ethr =  7.01E-07,  avg # of iterations =  3.8

     total cpu time spent up to now is       65.2 secs

     total energy              =    -845.04690873 Ry
     Harris-Foulkes estimate   =    -845.04710427 Ry
     estimated scf accuracy    <       0.00074794 Ry

     iteration #  9     ecut=    45.00 Ry     beta= 0.70
     Davidson diagonalization with overlap
     ethr =  3.46E-07,  avg # of iterations =  2.0

     total cpu time spent up to now is       70.7 secs

     total energy              =    -845.04687561 Ry
     Harris-Foulkes estimate   =    -845.04695460 Ry
     estimated scf accuracy    <       0.00020810 Ry

     iteration # 10     ecut=    45.00 Ry     beta= 0.70
     Davidson diagonalization with overlap
     ethr =  9.63E-08,  avg # of iterations =  6.8

     total cpu time spent up to now is       79.4 secs

     total energy              =    -845.04692124 Ry
     Harris-Foulkes estimate   =    -845.04693842 Ry
     estimated scf accuracy    <       0.00008740 Ry

     iteration # 11     ecut=    45.00 Ry     beta= 0.70
     Davidson diagonalization with overlap
     ethr =  4.05E-08,  avg # of iterations =  2.8

     total cpu time spent up to now is       85.1 secs

     total energy              =    -845.04692784 Ry
     Harris-Foulkes estimate   =    -845.04692917 Ry
     estimated scf accuracy    <       0.00000700 Ry

     iteration # 12     ecut=    45.00 Ry     beta= 0.70
     Davidson diagonalization with overlap
     ethr =  3.24E-09,  avg # of iterations =  4.2

     total cpu time spent up to now is       92.9 secs

     total energy              =    -845.04692988 Ry
     Harris-Foulkes estimate   =    -845.04693051 Ry
     estimated scf accuracy    <       0.00000432 Ry

     iteration # 13     ecut=    45.00 Ry     beta= 0.70
     Davidson diagonalization with overlap
     ethr =  2.00E-09,  avg # of iterations =  2.0

     total cpu time spent up to now is       98.3 secs

     End of self-consistent calculation

          k = 0.0000 0.0000 0.0000 ( 36251 PWs)   bands (ev):

   -12.0746 -11.3792 -10.6255 -10.6120 -10.4082 -10.1936  -9.8543  -9.8336
    -9.8192  -9.6948  -9.6739  -9.6616  -9.6497  -9.6354  -9.3976  -9.3884
    -9.3794  -9.3727  -9.3518  -9.2282  -9.0358  -8.6210  -8.5309  -8.0122
    -3.0160  -3.0096  -3.0026  -2.8639  -2.5751  -2.3814  -2.3602  -2.2606
    -2.2501  -2.1914  -2.1612  -2.1573  -2.1234  -2.0755  -2.0673  -2.0658
    -1.8317  -1.6069  -1.4180  -1.3958  -1.3842  -1.3747  -1.1755  -1.1394
    -1.0398  -0.9658  -0.9492  -0.8643  -0.8148  -0.7426  -0.6630  -0.5805
    -0.5744  -0.5457  -0.5146  -0.4870  -0.4676  -0.4007  -0.2548  -0.2069
    -0.1216   0.0098   0.0127   0.0421   0.0598   0.1796   0.1902   0.3415
     0.4611   0.5891   0.7119   0.7321   0.7460   0.7788   0.8288   0.8547
     0.9289   0.9396   0.9633   1.1188   1.1487   1.1737   1.2956   1.3127
     1.5254   1.6275   1.6279   1.6544   1.6793   1.7366   1.8358   1.8637
     1.8723   1.9376   1.9422   1.9495   1.9647   2.0494   2.1217   2.2870
     2.5743   2.8851   3.1074   3.2485   3.9670   4.1054   4.3521   4.4460
     4.5926   4.6042   4.6086   4.6123   4.6339   4.6603   4.6954   4.7016
     4.7868   4.8440   4.8851   5.1184   5.1209   5.1301   5.1544   5.1814
     5.2048   5.2920

          k = 0.0000-0.2885-0.0920 ( 36258 PWs)   bands (ev):

   -12.0746 -11.1783 -11.1631 -10.4082 -10.1049 -10.0835  -9.9753  -9.9575
    -9.8471  -9.6842  -9.6734  -9.6640  -9.6429  -9.5322  -9.5220  -9.3940
    -9.3829  -9.3697  -9.3563  -9.2282  -9.0361  -8.6210  -8.5307  -8.0120
    -2.7464  -2.7320  -2.7224  -2.7093  -2.6823  -2.6737  -2.6308  -2.6168
    -2.5664  -2.2049  -2.1336  -2.1281  -2.1190  -2.1101  -2.1063  -1.8327
    -1.7217  -1.6914  -1.6049  -1.4162  -1.2892  -1.2793  -1.2725  -1.2640
    -1.2572  -1.2497  -1.0284  -0.7439  -0.6609  -0.5862  -0.5407  -0.5347
    -0.5089  -0.4765  -0.4459  -0.4043  -0.4023  -0.3196  -0.2969  -0.1263
     0.0069   0.0474   0.1164   0.1573   0.2551   0.2645   0.3483   0.4595
     0.5883   0.6894   0.6981   0.7190   0.7318   0.7560   0.7863   0.8034
     0.8148   0.8386   0.8487   0.8523   0.8837   0.9040   1.1866   1.4184
     1.4412   1.5030   1.5286   1.5905   1.6326   1.6778   1.6856   1.7426
     1.8348   1.9403   2.0761   2.0897   2.1052   2.1652   2.2856   2.4101
     2.4437   2.8799   3.1157   3.2509   3.9702   4.1089   4.3570   4.4612
     4.5890   4.6211   4.6299   4.6508   4.6586   4.6791   4.6933   4.8657
     4.8928   4.9221   4.9546   4.9846   5.0586   5.0711   5.1168   5.1263
     5.1328   5.1481

          k = 0.3333-0.0011 0.0074 ( 36357 PWs)   bands (ev):

   -12.0456 -11.1037 -10.4145 -10.4061 -10.3960 -10.3939 -10.0609  -9.9371
    -9.9167  -9.7396  -9.7282  -9.7215  -9.7104  -9.5461  -9.5107  -9.4936
    -9.4119  -9.4033  -9.3120  -9.2240  -8.9818  -8.7227  -8.5342  -8.0290
    -2.6372  -2.6271  -2.6167  -2.6105  -2.5495  -2.3603  -2.3249  -2.2047
    -2.1858  -2.1780  -2.1483  -1.9641  -1.8521  -1.7691  -1.7498  -1.7451
    -1.5263  -1.3996  -1.3538  -1.2758  -1.2369  -1.2183  -1.1742  -1.1631
    -1.1512  -1.0377  -0.9499  -0.9401  -0.9244  -0.9221  -0.8779  -0.7230
    -0.6557  -0.5517  -0.5439  -0.5060  -0.4983  -0.4789  -0.4697  -0.4536
    -0.4102  -0.2516  -0.2037   0.0099   0.0808   0.2286   0.2951   0.3234
     0.3739   0.4425   0.4716   0.6062   0.6197   0.6559   0.6727   0.6944
     0.7188   0.9321   0.9663   0.9912   1.0021   1.0302   1.0744   1.2009
     1.4042   1.5101   1.5312   1.5525   1.6002   1.6473   1.7894   1.7983
     1.8107   1.8276   1.8593   1.8679   2.2696   2.2827   2.3585   2.5516
     2.5696   2.6678   3.1708   3.4063   3.6532   3.8523   4.1701   4.2245
     4.4095   4.4285   4.4410   4.4822   4.5537   4.6038   4.6241   4.7629
     4.8578   4.8729   4.8936   4.9106   4.9224   4.9350   4.9525   4.9894
     5.1179   5.1389

          k = 0.3333-0.2896-0.0847 ( 36341 PWs)   bands (ev):

   -12.0456 -10.9186 -10.9038 -10.3945 -10.2759 -10.2623  -9.9796  -9.9586
    -9.8298  -9.8102  -9.7258  -9.6745  -9.6541  -9.5746  -9.5560  -9.4484
    -9.4390  -9.4042  -9.3183  -9.3068  -8.9820  -8.7227  -8.5341  -8.0288
    -2.4848  -2.4744  -2.4365  -2.4265  -2.3891  -2.3861  -2.3730  -2.3628
    -2.3508  -2.3371  -2.3225  -2.1630  -1.9641  -1.9239  -1.8996  -1.7630
    -1.5274  -1.4051  -1.3154  -1.3051  -1.2386  -1.2221  -1.1508  -1.1337
    -1.0957  -1.0931  -1.0321  -0.8918  -0.8574  -0.8404  -0.7257  -0.6611
    -0.5842  -0.5717  -0.5461  -0.4933  -0.4730  -0.3574  -0.3372  -0.2071
    -0.1838  -0.1525  -0.1310  -0.1286   0.0557   0.2274   0.3178   0.3397
     0.3742   0.3931   0.4234   0.4617   0.5121   0.5477   0.6134   0.7608
     0.7825   0.9387   1.0409   1.0487   1.0683   1.0743   1.1062   1.1117
     1.1342   1.2067   1.4025   1.5354   1.5620   1.6050   1.6797   1.6953
     1.8309   1.9572   1.9747   2.1550   2.1798   2.2314   2.2444   2.2860
     2.5642   2.6621   3.1727   3.4069   3.6558   3.8551   4.2255   4.4499
     4.5188   4.5433   4.5996   4.6240   4.6424   4.6618   4.6841   4.7081
     4.7839   4.8023   4.8297   4.8967   4.9638   4.9807   4.9902   5.0384
     5.0556   5.0714

     the Fermi energy is     3.5198 ev

!    total energy              =    -845.04692940 Ry
     Harris-Foulkes estimate   =    -845.04693018 Ry
     estimated scf accuracy    <       0.00000090 Ry

     The total energy is the sum of the following terms:

     one-electron contribution =    -939.17456346 Ry
     hartree contribution      =     564.39609803 Ry
     xc contribution           =    -333.74403220 Ry
     ewald contribution        =    -136.52675286 Ry
     smearing contrib. (-TS)   =       0.00232109 Ry

     convergence has been achieved in  13 iterations

     Forces acting on atoms (cartesian axes, Ry/au):

     atom    1 type  1   force =    -0.00166997    0.00498617   -0.00224206
     atom    2 type  1   force =     0.00018603   -0.00125905   -0.00044681
     atom    3 type  1   force =    -0.00095370    0.00471748   -0.00214578
     atom    4 type  1   force =    -0.00132190   -0.00231787   -0.00117307
     atom    5 type  1   force =    -0.00438317    0.00006125    0.00214994
     atom    6 type  1   force =     0.00315634    0.00073815   -0.00258607
     atom    7 type  1   force =     0.00049341   -0.00195861   -0.00172119
     atom    8 type  1   force =    -0.00123708   -0.00496476   -0.00325925
     atom    9 type  1   force =    -0.02290742    0.01113595    0.01035132
     atom   10 type  1   force =     0.03319905    0.08596923    0.04398350
     atom   11 type  1   force =     0.00013108   -0.00488293   -0.00344495
     atom   12 type  1   force =    -0.00050574   -0.04832442   -0.03423252
     atom   13 type  2   force =    -0.00114465    0.00137291    0.00455346
     atom   14 type  2   force =     0.00018173    0.00269779    0.00626342
     atom   15 type  2   force =    -0.00170349   -0.00523078    0.00209250
     atom   16 type  2   force =     0.00295379    0.00213455    0.00457747
     atom   17 type  2   force =     0.01407236    0.01082359   -0.04040557
     atom   18 type  2   force =     0.00231508   -0.00500986   -0.00566015
     atom   19 type  2   force =     0.00014325    0.00519433    0.00229186
     atom   20 type  2   force =     0.00081896    0.00200364   -0.00591979
     atom   21 type  2   force =    -0.00205261    0.00048582   -0.00096720
     atom   22 type  2   force =     0.00227621    0.00078160   -0.00374637
     atom   23 type  2   force =    -0.00550726    0.00778111    0.00298817
     atom   24 type  2   force =     0.00023141   -0.00966318    0.02384212
     atom   25 type  2   force =     0.00361290   -0.00044919   -0.00041529
     atom   26 type  2   force =    -0.00092970   -0.00171055    0.00433147
     atom   27 type  2   force =     0.00375669    0.00033266   -0.00373178
     atom   28 type  2   force =    -0.00091178   -0.00117584    0.00069562
     atom   29 type  2   force =    -0.00067645   -0.00156313   -0.00026063
     atom   30 type  2   force =     0.00032001    0.00158278    0.00249770
     atom   31 type  2   force =    -0.01370485   -0.00525514    0.00143879
     atom   32 type  2   force =     0.00807319   -0.00971992    0.00602497
     atom   33 type  2   force =     0.00137021   -0.00496774    0.00434593
     atom   34 type  2   force =    -0.00153721   -0.00207949   -0.00374797
     atom   35 type  2   force =    -0.01342429   -0.01759852   -0.01251271
     atom   36 type  2   force =    -0.00272044   -0.01466802    0.00619095

     Total force =     0.139127     Total SCF correction =     0.002111
 
     init_run     :      4.35s CPU      4.51s WALL (       1 calls)
     electrons    :     90.38s CPU     93.02s WALL (       1 calls)
     forces       :      2.57s CPU      2.65s WALL (       1 calls)

     Called by init_run:
     wfcinit      :      2.20s CPU      2.25s WALL (       1 calls)
     potinit      :      0.55s CPU      0.56s WALL (       1 calls)
     hinit0       :      0.70s CPU      0.71s WALL (       1 calls)

     Called by electrons:
     c_bands      :     68.93s CPU     69.78s WALL (      13 calls)
     sum_band     :     14.64s CPU     15.79s WALL (      13 calls)
     v_of_rho     :      1.21s CPU      1.28s WALL (      14 calls)
     newd         :      4.21s CPU      4.74s WALL (      14 calls)
     mix_rho      :      1.58s CPU      1.67s WALL (      13 calls)

     Called by c_bands:
     init_us_2    :      1.68s CPU      1.71s WALL (     112 calls)
     cegterg      :     64.45s CPU     65.26s WALL (      52 calls)

     Called by sum_band:
     sum_band:bec :      0.09s CPU      0.09s WALL (      52 calls)
     addusdens    :      6.89s CPU      7.86s WALL (      13 calls)

     Called by *egterg:
     h_psi        :     32.07s CPU     32.58s WALL (     315 calls)
     s_psi        :      6.62s CPU      6.64s WALL (     315 calls)
     g_psi        :      0.17s CPU      0.17s WALL (     259 calls)
     cdiaghg      :     14.84s CPU     15.09s WALL (     311 calls)

     Called by h_psi:
     h_psi:pot    :     31.67s CPU     32.17s WALL (     315 calls)
     h_psi:calbec :      7.25s CPU      7.45s WALL (     315 calls)
     vloc_psi     :     17.81s CPU     18.09s WALL (     315 calls)
     add_vuspsi   :      6.61s CPU      6.63s WALL (     315 calls)

     General routines
     calbec       :     10.42s CPU     10.72s WALL (     383 calls)
     fft          :      1.11s CPU      1.20s WALL (     191 calls)
     ffts         :      0.67s CPU      0.74s WALL (     547 calls)
     fftw         :     19.97s CPU     20.30s WALL (   40820 calls)
     interpolate  :      0.12s CPU      0.12s WALL (      14 calls)
 
     Parallel routines
     fft_scatt_xy :      2.59s CPU      2.62s WALL (   41558 calls)
     fft_scatt_yz :      9.02s CPU      9.31s WALL (   41558 calls)
 
     PWSCF        :   1m38.03s CPU   1m41.02s WALL

 
   This run was terminated on:  21:16:40   3Dec2021            

=------------------------------------------------------------------------------=
   JOB DONE.
=------------------------------------------------------------------------------=
