
     Program PWSCF v.6.4 starts on 25Dec2021 at  0:11:35 

     This program is part of the open-source Quantum ESPRESSO suite
     for quantum simulation of materials; please cite
         "P. Giannozzi et al., J. Phys.:Condens. Matter 21 395502 (2009);
         "P. Giannozzi et al., J. Phys.:Condens. Matter 29 465901 (2017);
          URL http://www.quantum-espresso.org", 
     in publications or presentations arising from this work. More details at
     http://www.quantum-espresso.org/quote

     Parallel version (MPI), running on    40 processors

     MPI processes distributed on     1 nodes
     R & G space division:  proc/nbgrp/npool/nimage =      40
     Waiting for input...
     Reading input from standard input
Warning: card    &IONS ignored
Warning: card      ION_DYNAMICS = 'BFGS' ignored
Warning: card   / ignored
Warning: card    &CELL ignored
Warning: card      CELL_DYNAMICS = 'BFGS', ignored
Warning: card    / ignored

     Current dimensions of program PWSCF are:
     Max number of different atomic species (ntypx) = 10
     Max number of k-points (npk) =  40000
     Max angular momentum in pseudopotentials (lmaxx) =  3

     Subspace diagonalization in iterative solution of the eigenvalue problem:
     one sub-group per band group will be used
     scalapack distributed-memory algorithm (size of sub-group:  4*  4 procs)

 
     Parallelization info
     --------------------
     sticks:   dense  smooth     PW     G-vecs:    dense   smooth      PW
     Min          91      45     12                15203     5365     772
     Max          92      46     13                15228     5384     791
     Sum        3667    1813    511               608439   214761   31299
 


     bravais-lattice index     =            0
     lattice parameter (alat)  =      12.1536  a.u.
     unit-cell volume          =    5273.3929 (a.u.)^3
     number of atoms/cell      =           36
     number of atomic types    =            2
     number of electrons       =       216.00
     number of Kohn-Sham states=          130
     kinetic-energy cutoff     =      45.0000  Ry
     charge density cutoff     =     360.0000  Ry
     convergence threshold     =      1.0E-06
     mixing beta               =       0.7000
     number of iterations used =            8  local-TF  mixing
     Exchange-correlation      = SLA PW GGX GGC ( 1  4  2  2 0 0)

     celldm(1)=  12.153560  celldm(2)=   0.000000  celldm(3)=   0.000000
     celldm(4)=   0.000000  celldm(5)=   0.000000  celldm(6)=   0.000000

     crystal axes: (cart. coord. in units of alat)
               a(1) = (   1.000000   0.000000   0.000000 )  
               a(2) = (  -0.500000   0.866026   0.000000 )  
               a(3) = (   0.000000   0.000000   3.391946 )  

     reciprocal axes: (cart. coord. in units 2 pi/alat)
               b(1) = (  1.000000  0.577350  0.000000 )  
               b(2) = (  0.000000  1.154700  0.000000 )  
               b(3) = (  0.000000  0.000000  0.294816 )  


     PseudoPot. # 1 for Mo read from file:
     ~/pseudo/Mo.pw91-n-van.UPF
     MD5 check sum: Not computed, couldn't open file
     Pseudo is Ultrasoft + core correction, Zval =  6.0
     Generated by new atomic code, or converted to UPF format
     Using radial grid of  965 points,  3 beta functions with: 
                l(1) =   1
                l(2) =   2
                l(3) =   2
     Q(r) pseudized with  8 coefficients,  rinner =    1.000   1.000   1.000
                                                       1.200   1.200

     PseudoPot. # 2 for S  read from file:
     ~/pseudo/S.pw91-van_ak.UPF
     MD5 check sum: Not computed, couldn't open file
     Pseudo is Ultrasoft, Zval =  6.0
     Generated by new atomic code, or converted to UPF format
     Using radial grid of  811 points,  6 beta functions with: 
                l(1) =   0
                l(2) =   0
                l(3) =   1
                l(4) =   1
                l(5) =   2
                l(6) =   2
     Q(r) pseudized with  8 coefficients,  rinner =    1.100   1.100   1.100
                                                       1.100   1.100

     atomic species   valence    mass     pseudopotential
        Mo             6.00    95.50000     Mo( 1.00)
        S              6.00    32.06500     S ( 1.00)

     No symmetry found



   Cartesian axes

     site n.     atom                  positions (alat units)
         1           Mo  tau(   1) = (   0.1262696   0.7872781   1.5332481  )
         2           Mo  tau(   2) = (   0.3788283   0.0800191   2.6508718  )
         3           Mo  tau(   3) = (   0.3725810   0.6488046   0.3444596  )
         4           Mo  tau(   4) = (   0.3866672   0.3555739   1.5537086  )
         5           Mo  tau(   5) = (   0.6313786   0.5038883   2.6633471  )
         6           Mo  tau(   6) = (   0.6362386   0.2215770   0.3339257  )
         7           Mo  tau(   7) = (   0.8832151   0.0776092   2.6425618  )
         8           Mo  tau(   8) = (  -0.1120497   0.3485089   1.5339623  )
         9           Mo  tau(   9) = (  -0.3615832   0.8003490   1.5345263  )
        10           Mo  tau(  10) = (   0.1332155   0.5110080   2.6600772  )
        11           Mo  tau(  11) = (   0.1309703   0.2197296   0.3218533  )
        12           Mo  tau(  12) = (  -0.1225171   0.6474751   0.3202630  )
        13           S   tau(  13) = (   0.1431762   0.7891376   2.3969969  )
        14           S   tau(  14) = (   0.1375987   0.7789543   2.8994926  )
        15           S   tau(  15) = (   0.3700874   0.0832530   0.0895792  )
        16           S   tau(  16) = (   0.3645893   0.0673274   0.5729099  )
        17           S   tau(  17) = (   0.3780546   0.6371585   1.3008548  )
        18           S   tau(  18) = (   0.3904003   0.6370091   1.7813473  )
        19           S   tau(  19) = (   0.3910292   0.3623103   2.3962636  )
        20           S   tau(  20) = (   0.3917907   0.3478147   2.8994139  )
        21           S   tau(  21) = (   0.6209316   0.4987127   0.0769821  )
        22           S   tau(  22) = (   0.6204716   0.5027607   0.5663666  )
        23           S   tau(  23) = (   0.6292629   0.2024635   1.2941364  )
        24           S   tau(  24) = (   0.6440505   0.2181605   1.7939707  )
        25           S   tau(  25) = (   0.8813878   0.0732977   0.0761833  )
        26           S   tau(  26) = (   0.8811010   0.0744292   0.5882980  )
        27           S   tau(  27) = (  -0.1163874   0.3577866   2.4184021  )
        28           S   tau(  28) = (  -0.1108052   0.3608186   2.9081772  )
        29           S   tau(  29) = (  -0.3610337   0.7920637   2.4176601  )
        30           S   tau(  30) = (  -0.3616085   0.7981047   2.8875576  )
        31           S   tau(  31) = (   0.1170956   0.5143308   0.0838737  )
        32           S   tau(  32) = (   0.1342771   0.5098945   0.5845117  )
        33           S   tau(  33) = (   0.1269799   0.2042140   1.2990050  )
        34           S   tau(  34) = (   0.1255007   0.2099543   1.7796351  )
        35           S   tau(  35) = (  -0.1241788   0.6505113   1.3036830  )
        36           S   tau(  36) = (  -0.1068502   0.6400865   1.7805263  )

     number of k points=     5  Marzari-Vanderbilt smearing, width (Ry)=  0.0200
                       cart. coord. in units 2pi/alat
        k(    1) = (   0.0000000   0.0000000   0.0000000), wk =   0.2222222
        k(    2) = (   0.0000000   0.3849001   0.0000000), wk =   0.4444444
        k(    3) = (   0.3333333   0.5773502   0.0000000), wk =   0.4444444
        k(    4) = (  -0.3333333   0.1924501   0.0000000), wk =   0.4444444
        k(    5) = (   0.3333333   0.1924501   0.0000000), wk =   0.4444444

     Dense  grid:   608439 G-vectors     FFT dimensions: (  75,  75, 250)

     Smooth grid:   214761 G-vectors     FFT dimensions: (  54,  54, 180)

     Estimated max dynamical RAM per process >      97.45 MB

     Estimated total dynamical RAM >       3.81 GB

     Initial potential from superposition of free atoms

     starting charge  215.98107, renormalised to  216.00000
     Starting wfcs are  204 randomized atomic wfcs

     total cpu time spent up to now is        4.8 secs

     Self-consistent Calculation

     iteration #  1     ecut=    45.00 Ry     beta= 0.70
     Davidson diagonalization with overlap
     ethr =  1.00E-02,  avg # of iterations =  2.0

     total cpu time spent up to now is       11.0 secs

     total energy              =    -844.11372826 Ry
     Harris-Foulkes estimate   =    -846.69998442 Ry
     estimated scf accuracy    <       6.60757426 Ry

     iteration #  2     ecut=    45.00 Ry     beta= 0.70
     Davidson diagonalization with overlap
     ethr =  3.06E-03,  avg # of iterations =  2.2

     total cpu time spent up to now is       16.4 secs

     total energy              =    -845.32998767 Ry
     Harris-Foulkes estimate   =    -845.49765555 Ry
     estimated scf accuracy    <       0.86832007 Ry

     iteration #  3     ecut=    45.00 Ry     beta= 0.70
     Davidson diagonalization with overlap
     ethr =  4.02E-04,  avg # of iterations =  2.0

     total cpu time spent up to now is       21.3 secs

     total energy              =    -845.33651324 Ry
     Harris-Foulkes estimate   =    -845.40708512 Ry
     estimated scf accuracy    <       0.20122586 Ry

     iteration #  4     ecut=    45.00 Ry     beta= 0.70
     Davidson diagonalization with overlap
     ethr =  9.32E-05,  avg # of iterations =  5.0

     total cpu time spent up to now is       29.0 secs

     total energy              =    -845.38753958 Ry
     Harris-Foulkes estimate   =    -845.41070808 Ry
     estimated scf accuracy    <       0.10207030 Ry

     iteration #  5     ecut=    45.00 Ry     beta= 0.70
     Davidson diagonalization with overlap
     ethr =  4.73E-05,  avg # of iterations =  4.2

     total cpu time spent up to now is       34.8 secs

     total energy              =    -845.39139367 Ry
     Harris-Foulkes estimate   =    -845.39519604 Ry
     estimated scf accuracy    <       0.01169906 Ry

     iteration #  6     ecut=    45.00 Ry     beta= 0.70
     Davidson diagonalization with overlap
     ethr =  5.42E-06,  avg # of iterations =  7.4

     total cpu time spent up to now is       45.5 secs

     total energy              =    -845.39526710 Ry
     Harris-Foulkes estimate   =    -845.39708047 Ry
     estimated scf accuracy    <       0.00884591 Ry

     iteration #  7     ecut=    45.00 Ry     beta= 0.70
     Davidson diagonalization with overlap
     ethr =  4.10E-06,  avg # of iterations =  1.4

     total cpu time spent up to now is       50.1 secs

     total energy              =    -845.39574848 Ry
     Harris-Foulkes estimate   =    -845.39589188 Ry
     estimated scf accuracy    <       0.00115035 Ry

     iteration #  8     ecut=    45.00 Ry     beta= 0.70
     Davidson diagonalization with overlap
     ethr =  5.33E-07,  avg # of iterations =  3.6

     total cpu time spent up to now is       56.3 secs

     total energy              =    -845.39595551 Ry
     Harris-Foulkes estimate   =    -845.39597588 Ry
     estimated scf accuracy    <       0.00010431 Ry

     iteration #  9     ecut=    45.00 Ry     beta= 0.70
     Davidson diagonalization with overlap
     ethr =  4.83E-08,  avg # of iterations =  2.2

     total cpu time spent up to now is       62.1 secs

     total energy              =    -845.39596271 Ry
     Harris-Foulkes estimate   =    -845.39597781 Ry
     estimated scf accuracy    <       0.00006501 Ry

     iteration # 10     ecut=    45.00 Ry     beta= 0.70
     Davidson diagonalization with overlap
     ethr =  3.01E-08,  avg # of iterations =  2.4

     total cpu time spent up to now is       67.3 secs

     total energy              =    -845.39597098 Ry
     Harris-Foulkes estimate   =    -845.39597145 Ry
     estimated scf accuracy    <       0.00002378 Ry

     iteration # 11     ecut=    45.00 Ry     beta= 0.70
     Davidson diagonalization with overlap
     ethr =  1.10E-08,  avg # of iterations =  3.0

     total cpu time spent up to now is       73.0 secs

     total energy              =    -845.39596155 Ry
     Harris-Foulkes estimate   =    -845.39597526 Ry
     estimated scf accuracy    <       0.00005029 Ry

     iteration # 12     ecut=    45.00 Ry     beta= 0.70
     Davidson diagonalization with overlap
     ethr =  1.10E-08,  avg # of iterations =  3.0

     total cpu time spent up to now is       79.0 secs

     total energy              =    -845.39596843 Ry
     Harris-Foulkes estimate   =    -845.39596872 Ry
     estimated scf accuracy    <       0.00000393 Ry

     iteration # 13     ecut=    45.00 Ry     beta= 0.70
     Davidson diagonalization with overlap
     ethr =  1.82E-09,  avg # of iterations =  1.8

     total cpu time spent up to now is       83.8 secs

     total energy              =    -845.39596844 Ry
     Harris-Foulkes estimate   =    -845.39596870 Ry
     estimated scf accuracy    <       0.00000245 Ry

     iteration # 14     ecut=    45.00 Ry     beta= 0.70
     Davidson diagonalization with overlap
     ethr =  1.13E-09,  avg # of iterations =  1.0

     total cpu time spent up to now is       88.3 secs

     total energy              =    -845.39596818 Ry
     Harris-Foulkes estimate   =    -845.39596852 Ry
     estimated scf accuracy    <       0.00000131 Ry

     iteration # 15     ecut=    45.00 Ry     beta= 0.70
     Davidson diagonalization with overlap
     ethr =  6.07E-10,  avg # of iterations =  3.0

     total cpu time spent up to now is       93.6 secs

     End of self-consistent calculation

          k = 0.0000 0.0000 0.0000 ( 26795 PWs)   bands (ev):

    -8.4166  -8.3269  -8.2366  -7.1578  -7.1345  -7.0787  -6.7656  -6.7403
    -6.7037  -6.6137  -6.5784  -6.5493  -6.5401  -6.4834  -6.4791  -6.3935
    -6.3347  -6.3100  -6.2985  -6.2868  -6.2644  -6.2219  -6.1881  -6.1682
    -0.0570  -0.0195  -0.0083   0.0086   0.0451   0.0594   0.0849   0.1160
     0.1419   0.1872   0.2060   0.3519   0.8929   0.9119   0.9413   0.9802
     1.0184   1.0350   1.0455   1.0726   1.0981   1.5488   1.5624   1.6169
     1.6326   1.7051   1.7204   1.7867   1.8092   1.8858   2.3736   2.4021
     2.4125   2.5109   2.5619   2.5622   2.6925   2.7124   2.7531   2.9144
     2.9650   3.0538   3.1531   3.1679   3.2713   3.5859   3.6621   3.7122
     3.7492   3.7650   3.8132   3.8151   3.8331   3.8871   3.9268   3.9634
     4.0661   4.0896   4.1295   4.2512   4.3460   4.4004   4.4114   4.5501
     4.6486   4.6591   4.6722   4.7313   4.7751   4.7931   4.8350   4.9270
     5.0308   5.0448   5.0764   5.1261   5.1453   5.1777   5.2411   5.2779
     5.2883   5.5286   5.8450   5.9219   7.4830   7.5491   7.6234   7.6390
     7.6472   7.6691   7.6990   7.7042   7.7454   8.0778   8.1037   8.1191
     8.1653   8.1687   8.1826   8.1963   8.1993   8.2142   8.2393   8.2728
     8.3008   8.3648

          k = 0.0000 0.3849 0.0000 ( 26866 PWs)   bands (ev):

    -8.0514  -7.9617  -7.8786  -7.2183  -7.1215  -7.0586  -6.9886  -6.9647
    -6.8990  -6.7342  -6.6814  -6.6442  -6.6064  -6.5979  -6.5903  -6.4852
    -6.4715  -6.4324  -6.3512  -6.2869  -6.2795  -6.2695  -6.2225  -6.1616
     0.3582   0.3793   0.4288   0.4801   0.4955   0.5073   0.5398   0.5811
     0.6107   0.6189   0.6986   0.7718   0.7838   0.8437   0.8543   0.8944
     0.9640   1.0503   1.5379   1.5734   1.6600   1.7338   1.7893   1.8270
     1.8487   1.8900   1.9125   1.9522   1.9834   2.0665   2.2743   2.3563
     2.3909   2.4109   2.5086   2.5372   2.5840   2.6139   2.6569   2.7047
     2.7894   2.8414   2.9230   2.9851   3.0168   3.2165   3.2857   3.3107
     3.3790   3.4057   3.4755   3.4805   3.4951   3.6400   3.6456   3.7621
     3.8289   3.9028   3.9180   3.9447   3.9721   4.0051   4.0563   4.0900
     4.1352   4.2099   4.2792   4.3082   4.4325   4.4804   4.5396   4.6397
     4.7307   4.8127   4.8798   5.0273   5.1757   5.1917   5.2868   5.3381
     5.3660   5.3916   5.4841   5.5166   7.5508   7.6044   7.6283   7.6379
     7.6667   7.6832   7.7272   7.7675   7.8019   7.8189   7.8620   7.8803
     7.9168   7.9759   8.0191   8.0769   8.0987   8.1344   8.1409   8.1844
     8.2411   8.2776

          k = 0.3333 0.5774 0.0000 ( 26895 PWs)   bands (ev):

    -7.5572  -7.4859  -7.4305  -7.3560  -7.3288  -7.3130  -7.2987  -7.2304
    -7.1507  -6.7980  -6.6957  -6.6728  -6.6685  -6.6441  -6.6173  -6.6041
    -6.5849  -6.5414  -6.4093  -6.2973  -6.2201  -6.1778  -6.1280  -6.0722
     0.3193   0.4332   0.5102   0.6391   0.7285   0.7508   0.8338   0.8759
     0.9067   0.9603   0.9967   1.0791   1.1616   1.1959   1.2620   1.6051
     1.6431   1.7029   1.7398   1.7730   1.8089   1.8622   1.8727   1.9020
     1.9297   1.9593   1.9732   2.0051   2.0352   2.0428   2.0871   2.1228
     2.1434   2.1673   2.1765   2.1958   2.2236   2.2526   2.3223   2.4992
     2.5391   2.5680   2.5920   2.6158   2.6479   2.6748   2.7133   2.7583
     2.8389   2.8779   2.9379   3.4921   3.5113   3.5339   3.5695   3.6537
     3.6867   3.7565   3.8058   3.8138   3.8438   3.8668   3.9331   4.4555
     4.4938   4.5297   4.5858   4.6092   4.6282   4.7011   4.7237   4.7573
     4.7975   4.8649   4.9049   4.9408   4.9752   4.9891   4.9990   5.0498
     5.0670   5.6750   5.6863   5.7369   7.1098   7.2232   7.2514   7.3509
     7.3770   7.3798   7.4839   7.5198   7.5694   7.5915   7.6395   7.6983
     7.9066   7.9143   7.9240   7.9500   7.9787   8.0088   8.0364   8.0736
     8.1342   8.1930

          k =-0.3333 0.1925 0.0000 ( 26866 PWs)   bands (ev):

    -8.0535  -7.9757  -7.8763  -7.2158  -7.1630  -7.0270  -6.9849  -6.9495
    -6.9069  -6.7638  -6.6531  -6.6344  -6.6217  -6.5921  -6.5601  -6.5037
    -6.4370  -6.3963  -6.3344  -6.3247  -6.2977  -6.2818  -6.2373  -6.1780
     0.3504   0.3863   0.4360   0.4585   0.4996   0.5107   0.5392   0.5799
     0.6071   0.6219   0.6688   0.7828   0.7859   0.9104   0.9249   0.9839
     1.0111   1.0362   1.5108   1.5798   1.6454   1.7195   1.7534   1.8525
     1.8750   1.8927   1.9052   1.9522   1.9919   2.0400   2.2447   2.2915
     2.3839   2.4110   2.4786   2.5137   2.5519   2.6051   2.6723   2.7190
     2.7405   2.8172   2.9083   3.0316   3.0862   3.2158   3.2873   3.3106
     3.3543   3.4321   3.4388   3.4680   3.5372   3.5865   3.6093   3.6539
     3.8365   3.9044   3.9260   3.9430   3.9651   4.0094   4.0455   4.0675
     4.1746   4.2348   4.2920   4.3720   4.4564   4.5062   4.5574   4.6971
     4.7434   4.8217   4.9408   5.0784   5.1553   5.1775   5.2372   5.3010
     5.3617   5.4275   5.4820   5.5617   7.5332   7.5958   7.6301   7.6542
     7.6756   7.6882   7.7318   7.7435   7.7668   7.7820   7.8315   7.8552
     7.9025   7.9396   7.9554   8.0296   8.0575   8.0863   8.1191   8.1598
     8.2088   8.2411

          k = 0.3333 0.1925 0.0000 ( 26866 PWs)   bands (ev):

    -8.0627  -7.9697  -7.8803  -7.1977  -7.1198  -7.0706  -6.9866  -6.9314
    -6.8780  -6.7823  -6.7330  -6.6023  -6.5899  -6.5679  -6.5534  -6.5251
    -6.4878  -6.4273  -6.4003  -6.3110  -6.2675  -6.2522  -6.1956  -6.1786
     0.3440   0.3645   0.4361   0.4715   0.4836   0.5251   0.5528   0.5844
     0.5998   0.6478   0.7051   0.7696   0.8578   0.8663   0.9013   0.9653
     1.0008   1.0617   1.5205   1.5690   1.6597   1.7062   1.7698   1.8056
     1.8231   1.8674   1.9379   1.9808   1.9915   2.0552   2.2270   2.3622
     2.4253   2.4316   2.4752   2.4955   2.5213   2.6236   2.6608   2.6954
     2.7421   2.8441   2.8805   2.9166   3.0255   3.1827   3.2450   3.3278
     3.3686   3.4299   3.4875   3.4917   3.5489   3.6091   3.6259   3.7036
     3.7258   3.8900   3.9150   3.9449   3.9786   3.9970   4.0167   4.1178
     4.1533   4.2201   4.3137   4.3194   4.4864   4.5076   4.5556   4.7185
     4.8063   4.8703   4.9913   5.0642   5.1438   5.2337   5.2412   5.3083
     5.3367   5.3989   5.5267   5.5499   7.5342   7.5765   7.6137   7.6372
     7.6669   7.6935   7.7516   7.7859   7.7966   7.8019   7.8399   7.8635
     7.9273   7.9687   7.9871   8.0218   8.0761   8.0865   8.1053   8.1557
     8.1976   8.2398

     the Fermi energy is     5.8605 ev

!    total energy              =    -845.39596828 Ry
     Harris-Foulkes estimate   =    -845.39596836 Ry
     estimated scf accuracy    <       0.00000009 Ry

     The total energy is the sum of the following terms:

     one-electron contribution =    -225.25121738 Ry
     hartree contribution      =     230.96583051 Ry
     xc contribution           =    -334.28490001 Ry
     ewald contribution        =    -516.84683437 Ry
     smearing contrib. (-TS)   =       0.02115297 Ry

     convergence has been achieved in  15 iterations

     Forces acting on atoms (cartesian axes, Ry/au):

     atom    1 type  1   force =     0.06886993    0.01220231    0.06955814
     atom    2 type  1   force =     0.08795218   -0.05358254   -0.02991261
     atom    3 type  1   force =     0.01416083    0.03685261   -0.10526836
     atom    4 type  1   force =    -0.00797512   -0.03853637   -0.06952682
     atom    5 type  1   force =     0.02669757   -0.00914095   -0.04419079
     atom    6 type  1   force =    -0.04690856   -0.05882959   -0.02805179
     atom    7 type  1   force =    -0.00492578   -0.04991069    0.08676485
     atom    8 type  1   force =    -0.05722919    0.04561924    0.02421895
     atom    9 type  1   force =    -0.04948458   -0.10282978    0.06817409
     atom   10 type  1   force =     0.03459280   -0.06578011   -0.05449887
     atom   11 type  1   force =    -0.05849206    0.01995233    0.06701424
     atom   12 type  1   force =    -0.03969443    0.02093737    0.05646576
     atom   13 type  2   force =    -0.03127336    0.01329668    0.02811533
     atom   14 type  2   force =    -0.00746539    0.07185348    0.00013426
     atom   15 type  2   force =     0.05132339   -0.02358553   -0.02990114
     atom   16 type  2   force =     0.03936319    0.00743153   -0.00979485
     atom   17 type  2   force =     0.01569697    0.00768426   -0.01340743
     atom   18 type  2   force =    -0.01211439    0.05243242    0.01668228
     atom   19 type  2   force =    -0.01931052    0.01263129    0.04239146
     atom   20 type  2   force =    -0.02970936    0.03864940    0.02150454
     atom   21 type  2   force =    -0.00006906    0.02014844    0.02758615
     atom   22 type  2   force =     0.04066206    0.01266574    0.04717512
     atom   23 type  2   force =    -0.00213040    0.02894145   -0.00359252
     atom   24 type  2   force =    -0.01285477   -0.03009611   -0.02234950
     atom   25 type  2   force =    -0.00774292   -0.01047595    0.04051327
     atom   26 type  2   force =     0.00438381    0.00914680   -0.03306811
     atom   27 type  2   force =    -0.00144271    0.04686715   -0.03505573
     atom   28 type  2   force =    -0.01277195   -0.00596466   -0.01786618
     atom   29 type  2   force =    -0.01488462   -0.00687345   -0.04069570
     atom   30 type  2   force =    -0.02798551    0.00742913    0.04211133
     atom   31 type  2   force =     0.04517311   -0.01429927   -0.01274281
     atom   32 type  2   force =    -0.04150771   -0.01954118   -0.01730996
     atom   33 type  2   force =     0.04281377    0.04566007   -0.05584692
     atom   34 type  2   force =     0.02654253    0.00617221    0.04361485
     atom   35 type  2   force =     0.01472600   -0.03290725   -0.06545160
     atom   36 type  2   force =    -0.02698574    0.00577957    0.00650706

     Total force =     0.408527     Total SCF correction =     0.000796
 
     init_run     :      3.51s CPU      3.78s WALL (       1 calls)
     electrons    :     86.30s CPU     88.84s WALL (       1 calls)
     forces       :      1.90s CPU      1.98s WALL (       1 calls)

     Called by init_run:
     wfcinit      :      2.28s CPU      2.41s WALL (       1 calls)
     potinit      :      0.24s CPU      0.24s WALL (       1 calls)
     hinit0       :      0.35s CPU      0.41s WALL (       1 calls)

     Called by electrons:
     c_bands      :     67.97s CPU     68.96s WALL (      15 calls)
     sum_band     :     13.32s CPU     14.38s WALL (      15 calls)
     v_of_rho     :      0.92s CPU      0.97s WALL (      16 calls)
     newd         :      3.29s CPU      3.78s WALL (      16 calls)
     mix_rho      :      0.89s CPU      0.90s WALL (      15 calls)

     Called by c_bands:
     init_us_2    :      1.50s CPU      1.51s WALL (     160 calls)
     cegterg      :     63.15s CPU     64.11s WALL (      75 calls)

     Called by sum_band:
     sum_band:bec :      0.13s CPU      0.14s WALL (      75 calls)
     addusdens    :      5.00s CPU      5.85s WALL (      15 calls)

     Called by *egterg:
     h_psi        :     32.97s CPU     33.63s WALL (     301 calls)
     s_psi        :      6.50s CPU      6.51s WALL (     301 calls)
     g_psi        :      0.17s CPU      0.17s WALL (     221 calls)
     cdiaghg      :     13.52s CPU     13.84s WALL (     296 calls)

     Called by h_psi:
     h_psi:pot    :     32.61s CPU     33.26s WALL (     301 calls)
     h_psi:calbec :      7.34s CPU      7.57s WALL (     301 calls)
     vloc_psi     :     18.69s CPU     19.10s WALL (     301 calls)
     add_vuspsi   :      6.57s CPU      6.59s WALL (     301 calls)

     General routines
     calbec       :     10.86s CPU     11.21s WALL (     396 calls)
     fft          :      0.91s CPU      1.01s WALL (     217 calls)
     ffts         :      0.37s CPU      0.37s WALL (     431 calls)
     fftw         :     20.60s CPU     21.03s WALL (   59136 calls)
     interpolate  :      0.08s CPU      0.08s WALL (      16 calls)
 
     Parallel routines
     fft_scatt_xy :      2.50s CPU      2.55s WALL (   59784 calls)
     fft_scatt_yz :      8.90s CPU      9.13s WALL (   59784 calls)
 
     PWSCF        :   1m32.64s CPU   1m35.67s WALL

 
   This run was terminated on:   0:13:11  25Dec2021            

=------------------------------------------------------------------------------=
   JOB DONE.
=------------------------------------------------------------------------------=

     Program PWSCF v.6.4 starts on 25Dec2021 at  0:14:44 

     This program is part of the open-source Quantum ESPRESSO suite
     for quantum simulation of materials; please cite
         "P. Giannozzi et al., J. Phys.:Condens. Matter 21 395502 (2009);
         "P. Giannozzi et al., J. Phys.:Condens. Matter 29 465901 (2017);
          URL http://www.quantum-espresso.org", 
     in publications or presentations arising from this work. More details at
     http://www.quantum-espresso.org/quote

     Parallel version (MPI), running on    40 processors

     MPI processes distributed on     1 nodes
     R & G space division:  proc/nbgrp/npool/nimage =      40
     Waiting for input...
     Reading input from standard input
Warning: card    &IONS ignored
Warning: card      ION_DYNAMICS = 'BFGS' ignored
Warning: card   / ignored
Warning: card    &CELL ignored
Warning: card      CELL_DYNAMICS = 'BFGS', ignored
Warning: card    / ignored

     Current dimensions of program PWSCF are:
     Max number of different atomic species (ntypx) = 10
     Max number of k-points (npk) =  40000
     Max angular momentum in pseudopotentials (lmaxx) =  3

     Subspace diagonalization in iterative solution of the eigenvalue problem:
     one sub-group per band group will be used
     scalapack distributed-memory algorithm (size of sub-group:  4*  4 procs)

 
     Parallelization info
     --------------------
     sticks:   dense  smooth     PW     G-vecs:    dense   smooth      PW
     Min          91      45     12                15203     5365     772
     Max          92      46     13                15228     5384     791
     Sum        3667    1813    511               608439   214761   31299
 


     bravais-lattice index     =            0
     lattice parameter (alat)  =      12.1536  a.u.
     unit-cell volume          =    5273.3929 (a.u.)^3
     number of atoms/cell      =           36
     number of atomic types    =            2
     number of electrons       =       216.00
     number of Kohn-Sham states=          130
     kinetic-energy cutoff     =      45.0000  Ry
     charge density cutoff     =     360.0000  Ry
     convergence threshold     =      1.0E-06
     mixing beta               =       0.7000
     number of iterations used =            8  local-TF  mixing
     Exchange-correlation      = SLA PW GGX GGC ( 1  4  2  2 0 0)

     celldm(1)=  12.153560  celldm(2)=   0.000000  celldm(3)=   0.000000
     celldm(4)=   0.000000  celldm(5)=   0.000000  celldm(6)=   0.000000

     crystal axes: (cart. coord. in units of alat)
               a(1) = (   1.000000   0.000000   0.000000 )  
               a(2) = (  -0.500000   0.866026   0.000000 )  
               a(3) = (   0.000000   0.000000   3.391946 )  

     reciprocal axes: (cart. coord. in units 2 pi/alat)
               b(1) = (  1.000000  0.577350  0.000000 )  
               b(2) = (  0.000000  1.154700  0.000000 )  
               b(3) = (  0.000000  0.000000  0.294816 )  


     PseudoPot. # 1 for Mo read from file:
     ~/pseudo/Mo.pw91-n-van.UPF
     MD5 check sum: Not computed, couldn't open file
     Pseudo is Ultrasoft + core correction, Zval =  6.0
     Generated by new atomic code, or converted to UPF format
     Using radial grid of  965 points,  3 beta functions with: 
                l(1) =   1
                l(2) =   2
                l(3) =   2
     Q(r) pseudized with  8 coefficients,  rinner =    1.000   1.000   1.000
                                                       1.200   1.200

     PseudoPot. # 2 for S  read from file:
     ~/pseudo/S.pw91-van_ak.UPF
     MD5 check sum: Not computed, couldn't open file
     Pseudo is Ultrasoft, Zval =  6.0
     Generated by new atomic code, or converted to UPF format
     Using radial grid of  811 points,  6 beta functions with: 
                l(1) =   0
                l(2) =   0
                l(3) =   1
                l(4) =   1
                l(5) =   2
                l(6) =   2
     Q(r) pseudized with  8 coefficients,  rinner =    1.100   1.100   1.100
                                                       1.100   1.100

     atomic species   valence    mass     pseudopotential
        Mo             6.00    95.50000     Mo( 1.00)
        S              6.00    32.06500     S ( 1.00)

     No symmetry found



   Cartesian axes

     site n.     atom                  positions (alat units)
         1           Mo  tau(   1) = (   0.1262696   0.7872781   1.5332481  )
         2           Mo  tau(   2) = (   0.3788283   0.0800191   2.6508718  )
         3           Mo  tau(   3) = (   0.3725810   0.6488046   0.3444596  )
         4           Mo  tau(   4) = (   0.3866672   0.3555739   1.5537086  )
         5           Mo  tau(   5) = (   0.6313786   0.5038883   2.6633471  )
         6           Mo  tau(   6) = (   0.6362386   0.2215770   0.3339257  )
         7           Mo  tau(   7) = (   0.8832151   0.0776092   2.6425618  )
         8           Mo  tau(   8) = (  -0.1120497   0.3485089   1.5339623  )
         9           Mo  tau(   9) = (  -0.3615832   0.8003490   1.5345263  )
        10           Mo  tau(  10) = (   0.1332155   0.5110080   2.6600772  )
        11           Mo  tau(  11) = (   0.1309703   0.2197296   0.3218533  )
        12           Mo  tau(  12) = (  -0.1225171   0.6474751   0.3202630  )
        13           S   tau(  13) = (   0.1431762   0.7891376   2.3969969  )
        14           S   tau(  14) = (   0.1375987   0.7789543   2.8994926  )
        15           S   tau(  15) = (   0.3700874   0.0832530   0.0895792  )
        16           S   tau(  16) = (   0.3645893   0.0673274   0.5729099  )
        17           S   tau(  17) = (   0.3780546   0.6371585   1.3008548  )
        18           S   tau(  18) = (   0.3904003   0.6370091   1.7813473  )
        19           S   tau(  19) = (   0.3910292   0.3623103   2.3962636  )
        20           S   tau(  20) = (   0.3917907   0.3478147   2.8994139  )
        21           S   tau(  21) = (   0.6209316   0.4987127   0.0769821  )
        22           S   tau(  22) = (   0.6204716   0.5027607   0.5663666  )
        23           S   tau(  23) = (   0.6292629   0.2024635   1.2941364  )
        24           S   tau(  24) = (   0.6440505   0.2181605   1.7939707  )
        25           S   tau(  25) = (   0.8813878   0.0732977   0.0761833  )
        26           S   tau(  26) = (   0.8811010   0.0744292   0.5882980  )
        27           S   tau(  27) = (  -0.1163874   0.3577866   2.4184021  )
        28           S   tau(  28) = (  -0.1108052   0.3608186   2.9081772  )
        29           S   tau(  29) = (  -0.3610337   0.7920637   2.4176601  )
        30           S   tau(  30) = (  -0.3616085   0.7981047   2.8875576  )
        31           S   tau(  31) = (   0.1170956   0.5143308   0.0838737  )
        32           S   tau(  32) = (   0.1342771   0.5098945   0.5845117  )
        33           S   tau(  33) = (   0.1269799   0.2042140   1.2990050  )
        34           S   tau(  34) = (   0.1255007   0.2099543   1.7796351  )
        35           S   tau(  35) = (  -0.1241788   0.6505113   1.3036830  )
        36           S   tau(  36) = (  -0.1068502   0.6400865   1.7805263  )

     number of k points=     5  Marzari-Vanderbilt smearing, width (Ry)=  0.0200
                       cart. coord. in units 2pi/alat
        k(    1) = (   0.0000000   0.0000000   0.0000000), wk =   0.2222222
        k(    2) = (   0.0000000   0.3849001   0.0000000), wk =   0.4444444
        k(    3) = (   0.3333333   0.5773502   0.0000000), wk =   0.4444444
        k(    4) = (  -0.3333333   0.1924501   0.0000000), wk =   0.4444444
        k(    5) = (   0.3333333   0.1924501   0.0000000), wk =   0.4444444

     Dense  grid:   608439 G-vectors     FFT dimensions: (  75,  75, 250)

     Smooth grid:   214761 G-vectors     FFT dimensions: (  54,  54, 180)

     Estimated max dynamical RAM per process >      97.45 MB

     Estimated total dynamical RAM >       3.81 GB

     Initial potential from superposition of free atoms

     starting charge  215.98107, renormalised to  216.00000
     Starting wfcs are  204 randomized atomic wfcs

     total cpu time spent up to now is        4.1 secs

     Self-consistent Calculation

     iteration #  1     ecut=    45.00 Ry     beta= 0.70
     Davidson diagonalization with overlap
     ethr =  1.00E-02,  avg # of iterations =  2.0

     total cpu time spent up to now is       10.2 secs

     total energy              =    -844.11372826 Ry
     Harris-Foulkes estimate   =    -846.69998442 Ry
     estimated scf accuracy    <       6.60757426 Ry

     iteration #  2     ecut=    45.00 Ry     beta= 0.70
     Davidson diagonalization with overlap
     ethr =  3.06E-03,  avg # of iterations =  2.2

     total cpu time spent up to now is       15.7 secs

     total energy              =    -845.32998767 Ry
     Harris-Foulkes estimate   =    -845.49765555 Ry
     estimated scf accuracy    <       0.86832007 Ry

     iteration #  3     ecut=    45.00 Ry     beta= 0.70
     Davidson diagonalization with overlap
     ethr =  4.02E-04,  avg # of iterations =  2.0

     total cpu time spent up to now is       20.5 secs

     total energy              =    -845.33651324 Ry
     Harris-Foulkes estimate   =    -845.40708512 Ry
     estimated scf accuracy    <       0.20122586 Ry

     iteration #  4     ecut=    45.00 Ry     beta= 0.70
     Davidson diagonalization with overlap
     ethr =  9.32E-05,  avg # of iterations =  5.0

     total cpu time spent up to now is       28.1 secs

     total energy              =    -845.38753958 Ry
     Harris-Foulkes estimate   =    -845.41070808 Ry
     estimated scf accuracy    <       0.10207030 Ry

     iteration #  5     ecut=    45.00 Ry     beta= 0.70
     Davidson diagonalization with overlap
     ethr =  4.73E-05,  avg # of iterations =  4.2

     total cpu time spent up to now is       33.9 secs

     total energy              =    -845.39139367 Ry
     Harris-Foulkes estimate   =    -845.39519604 Ry
     estimated scf accuracy    <       0.01169906 Ry

     iteration #  6     ecut=    45.00 Ry     beta= 0.70
     Davidson diagonalization with overlap
     ethr =  5.42E-06,  avg # of iterations =  7.4

     total cpu time spent up to now is       44.5 secs

     total energy              =    -845.39526710 Ry
     Harris-Foulkes estimate   =    -845.39708047 Ry
     estimated scf accuracy    <       0.00884591 Ry

     iteration #  7     ecut=    45.00 Ry     beta= 0.70
     Davidson diagonalization with overlap
     ethr =  4.10E-06,  avg # of iterations =  1.4

     total cpu time spent up to now is       49.1 secs

     total energy              =    -845.39574848 Ry
     Harris-Foulkes estimate   =    -845.39589188 Ry
     estimated scf accuracy    <       0.00115035 Ry

     iteration #  8     ecut=    45.00 Ry     beta= 0.70
     Davidson diagonalization with overlap
     ethr =  5.33E-07,  avg # of iterations =  3.6

     total cpu time spent up to now is       55.2 secs

     total energy              =    -845.39595551 Ry
     Harris-Foulkes estimate   =    -845.39597588 Ry
     estimated scf accuracy    <       0.00010431 Ry

     iteration #  9     ecut=    45.00 Ry     beta= 0.70
     Davidson diagonalization with overlap
     ethr =  4.83E-08,  avg # of iterations =  2.2

     total cpu time spent up to now is       60.9 secs

     total energy              =    -845.39596271 Ry
     Harris-Foulkes estimate   =    -845.39597781 Ry
     estimated scf accuracy    <       0.00006501 Ry

     iteration # 10     ecut=    45.00 Ry     beta= 0.70
     Davidson diagonalization with overlap
     ethr =  3.01E-08,  avg # of iterations =  2.4

     total cpu time spent up to now is       65.9 secs

     total energy              =    -845.39597098 Ry
     Harris-Foulkes estimate   =    -845.39597145 Ry
     estimated scf accuracy    <       0.00002378 Ry

     iteration # 11     ecut=    45.00 Ry     beta= 0.70
     Davidson diagonalization with overlap
     ethr =  1.10E-08,  avg # of iterations =  3.0

     total cpu time spent up to now is       71.5 secs

     total energy              =    -845.39596155 Ry
     Harris-Foulkes estimate   =    -845.39597526 Ry
     estimated scf accuracy    <       0.00005029 Ry

     iteration # 12     ecut=    45.00 Ry     beta= 0.70
     Davidson diagonalization with overlap
     ethr =  1.10E-08,  avg # of iterations =  3.0

     total cpu time spent up to now is       77.4 secs

     total energy              =    -845.39596843 Ry
     Harris-Foulkes estimate   =    -845.39596872 Ry
     estimated scf accuracy    <       0.00000393 Ry

     iteration # 13     ecut=    45.00 Ry     beta= 0.70
     Davidson diagonalization with overlap
     ethr =  1.82E-09,  avg # of iterations =  1.8

     total cpu time spent up to now is       82.0 secs

     total energy              =    -845.39596844 Ry
     Harris-Foulkes estimate   =    -845.39596870 Ry
     estimated scf accuracy    <       0.00000245 Ry

     iteration # 14     ecut=    45.00 Ry     beta= 0.70
     Davidson diagonalization with overlap
     ethr =  1.13E-09,  avg # of iterations =  1.0

     total cpu time spent up to now is       86.3 secs

     total energy              =    -845.39596818 Ry
     Harris-Foulkes estimate   =    -845.39596852 Ry
     estimated scf accuracy    <       0.00000131 Ry

     iteration # 15     ecut=    45.00 Ry     beta= 0.70
     Davidson diagonalization with overlap
     ethr =  6.07E-10,  avg # of iterations =  3.0

     total cpu time spent up to now is       91.5 secs

     End of self-consistent calculation

          k = 0.0000 0.0000 0.0000 ( 26795 PWs)   bands (ev):

    -8.4166  -8.3269  -8.2366  -7.1578  -7.1345  -7.0787  -6.7656  -6.7403
    -6.7037  -6.6137  -6.5784  -6.5493  -6.5401  -6.4834  -6.4791  -6.3935
    -6.3347  -6.3100  -6.2985  -6.2868  -6.2644  -6.2219  -6.1881  -6.1682
    -0.0570  -0.0195  -0.0083   0.0086   0.0451   0.0594   0.0849   0.1160
     0.1419   0.1872   0.2060   0.3519   0.8929   0.9119   0.9413   0.9802
     1.0184   1.0350   1.0455   1.0726   1.0981   1.5488   1.5624   1.6169
     1.6326   1.7051   1.7204   1.7867   1.8092   1.8858   2.3736   2.4021
     2.4125   2.5109   2.5619   2.5622   2.6925   2.7124   2.7531   2.9144
     2.9650   3.0538   3.1531   3.1679   3.2713   3.5859   3.6621   3.7122
     3.7492   3.7650   3.8132   3.8151   3.8331   3.8871   3.9268   3.9634
     4.0661   4.0896   4.1295   4.2512   4.3460   4.4004   4.4114   4.5501
     4.6486   4.6591   4.6722   4.7313   4.7751   4.7931   4.8350   4.9270
     5.0308   5.0448   5.0764   5.1261   5.1453   5.1777   5.2411   5.2779
     5.2883   5.5286   5.8450   5.9219   7.4830   7.5491   7.6234   7.6390
     7.6472   7.6691   7.6990   7.7042   7.7454   8.0778   8.1037   8.1191
     8.1653   8.1687   8.1826   8.1963   8.1993   8.2142   8.2393   8.2728
     8.3008   8.3648

          k = 0.0000 0.3849 0.0000 ( 26866 PWs)   bands (ev):

    -8.0514  -7.9617  -7.8786  -7.2183  -7.1215  -7.0586  -6.9886  -6.9647
    -6.8990  -6.7342  -6.6814  -6.6442  -6.6064  -6.5979  -6.5903  -6.4852
    -6.4715  -6.4324  -6.3512  -6.2869  -6.2795  -6.2695  -6.2225  -6.1616
     0.3582   0.3793   0.4288   0.4801   0.4955   0.5073   0.5398   0.5811
     0.6107   0.6189   0.6986   0.7718   0.7838   0.8437   0.8543   0.8944
     0.9640   1.0503   1.5379   1.5734   1.6600   1.7338   1.7893   1.8270
     1.8487   1.8900   1.9125   1.9522   1.9834   2.0665   2.2743   2.3563
     2.3909   2.4109   2.5086   2.5372   2.5840   2.6139   2.6569   2.7047
     2.7894   2.8414   2.9230   2.9851   3.0168   3.2165   3.2857   3.3107
     3.3790   3.4057   3.4755   3.4805   3.4951   3.6400   3.6456   3.7621
     3.8289   3.9028   3.9180   3.9447   3.9721   4.0051   4.0563   4.0900
     4.1352   4.2099   4.2792   4.3082   4.4325   4.4804   4.5396   4.6397
     4.7307   4.8127   4.8798   5.0273   5.1757   5.1917   5.2868   5.3381
     5.3660   5.3916   5.4841   5.5166   7.5508   7.6044   7.6283   7.6379
     7.6667   7.6832   7.7272   7.7675   7.8019   7.8189   7.8620   7.8803
     7.9168   7.9759   8.0191   8.0769   8.0987   8.1344   8.1409   8.1844
     8.2411   8.2776

          k = 0.3333 0.5774 0.0000 ( 26895 PWs)   bands (ev):

    -7.5572  -7.4859  -7.4305  -7.3560  -7.3288  -7.3130  -7.2987  -7.2304
    -7.1507  -6.7980  -6.6957  -6.6728  -6.6685  -6.6441  -6.6173  -6.6041
    -6.5849  -6.5414  -6.4093  -6.2973  -6.2201  -6.1778  -6.1280  -6.0722
     0.3193   0.4332   0.5102   0.6391   0.7285   0.7508   0.8338   0.8759
     0.9067   0.9603   0.9967   1.0791   1.1616   1.1959   1.2620   1.6051
     1.6431   1.7029   1.7398   1.7730   1.8089   1.8622   1.8727   1.9020
     1.9297   1.9593   1.9732   2.0051   2.0352   2.0428   2.0871   2.1228
     2.1434   2.1673   2.1765   2.1958   2.2236   2.2526   2.3223   2.4992
     2.5391   2.5680   2.5920   2.6158   2.6479   2.6748   2.7133   2.7583
     2.8389   2.8779   2.9379   3.4921   3.5113   3.5339   3.5695   3.6537
     3.6867   3.7565   3.8058   3.8138   3.8438   3.8668   3.9331   4.4555
     4.4938   4.5297   4.5858   4.6092   4.6282   4.7011   4.7237   4.7573
     4.7975   4.8649   4.9049   4.9408   4.9752   4.9891   4.9990   5.0498
     5.0670   5.6750   5.6863   5.7369   7.1098   7.2232   7.2514   7.3509
     7.3770   7.3798   7.4839   7.5198   7.5694   7.5915   7.6395   7.6983
     7.9066   7.9143   7.9240   7.9500   7.9787   8.0088   8.0364   8.0736
     8.1342   8.1930

          k =-0.3333 0.1925 0.0000 ( 26866 PWs)   bands (ev):

    -8.0535  -7.9757  -7.8763  -7.2158  -7.1630  -7.0270  -6.9849  -6.9495
    -6.9069  -6.7638  -6.6531  -6.6344  -6.6217  -6.5921  -6.5601  -6.5037
    -6.4370  -6.3963  -6.3344  -6.3247  -6.2977  -6.2818  -6.2373  -6.1780
     0.3504   0.3863   0.4360   0.4585   0.4996   0.5107   0.5392   0.5799
     0.6071   0.6219   0.6688   0.7828   0.7859   0.9104   0.9249   0.9839
     1.0111   1.0362   1.5108   1.5798   1.6454   1.7195   1.7534   1.8525
     1.8750   1.8927   1.9052   1.9522   1.9919   2.0400   2.2447   2.2915
     2.3839   2.4110   2.4786   2.5137   2.5519   2.6051   2.6723   2.7190
     2.7405   2.8172   2.9083   3.0316   3.0862   3.2158   3.2873   3.3106
     3.3543   3.4321   3.4388   3.4680   3.5372   3.5865   3.6093   3.6539
     3.8365   3.9044   3.9260   3.9430   3.9651   4.0094   4.0455   4.0675
     4.1746   4.2348   4.2920   4.3720   4.4564   4.5062   4.5574   4.6971
     4.7434   4.8217   4.9408   5.0784   5.1553   5.1775   5.2372   5.3010
     5.3617   5.4275   5.4820   5.5617   7.5332   7.5958   7.6301   7.6542
     7.6756   7.6882   7.7318   7.7435   7.7668   7.7820   7.8315   7.8552
     7.9025   7.9396   7.9554   8.0296   8.0575   8.0863   8.1191   8.1598
     8.2088   8.2411

          k = 0.3333 0.1925 0.0000 ( 26866 PWs)   bands (ev):

    -8.0627  -7.9697  -7.8803  -7.1977  -7.1198  -7.0706  -6.9866  -6.9314
    -6.8780  -6.7823  -6.7330  -6.6023  -6.5899  -6.5679  -6.5534  -6.5251
    -6.4878  -6.4273  -6.4003  -6.3110  -6.2675  -6.2522  -6.1956  -6.1786
     0.3440   0.3645   0.4361   0.4715   0.4836   0.5251   0.5528   0.5844
     0.5998   0.6478   0.7051   0.7696   0.8578   0.8663   0.9013   0.9653
     1.0008   1.0617   1.5205   1.5690   1.6597   1.7062   1.7698   1.8056
     1.8231   1.8674   1.9379   1.9808   1.9915   2.0552   2.2270   2.3622
     2.4253   2.4316   2.4752   2.4955   2.5213   2.6236   2.6608   2.6954
     2.7421   2.8441   2.8805   2.9166   3.0255   3.1827   3.2450   3.3278
     3.3686   3.4299   3.4875   3.4917   3.5489   3.6091   3.6259   3.7036
     3.7258   3.8900   3.9150   3.9449   3.9786   3.9970   4.0167   4.1178
     4.1533   4.2201   4.3137   4.3194   4.4864   4.5076   4.5556   4.7185
     4.8063   4.8703   4.9913   5.0642   5.1438   5.2337   5.2412   5.3083
     5.3367   5.3989   5.5267   5.5499   7.5342   7.5765   7.6137   7.6372
     7.6669   7.6935   7.7516   7.7859   7.7966   7.8019   7.8399   7.8635
     7.9273   7.9687   7.9871   8.0218   8.0761   8.0865   8.1053   8.1557
     8.1976   8.2398

     the Fermi energy is     5.8605 ev

!    total energy              =    -845.39596828 Ry
     Harris-Foulkes estimate   =    -845.39596836 Ry
     estimated scf accuracy    <       0.00000009 Ry

     The total energy is the sum of the following terms:

     one-electron contribution =    -225.25121738 Ry
     hartree contribution      =     230.96583051 Ry
     xc contribution           =    -334.28490001 Ry
     ewald contribution        =    -516.84683437 Ry
     smearing contrib. (-TS)   =       0.02115297 Ry

     convergence has been achieved in  15 iterations

     Forces acting on atoms (cartesian axes, Ry/au):

     atom    1 type  1   force =     0.06886993    0.01220231    0.06955814
     atom    2 type  1   force =     0.08795218   -0.05358254   -0.02991261
     atom    3 type  1   force =     0.01416083    0.03685261   -0.10526836
     atom    4 type  1   force =    -0.00797512   -0.03853637   -0.06952682
     atom    5 type  1   force =     0.02669757   -0.00914095   -0.04419079
     atom    6 type  1   force =    -0.04690856   -0.05882959   -0.02805179
     atom    7 type  1   force =    -0.00492578   -0.04991069    0.08676485
     atom    8 type  1   force =    -0.05722919    0.04561924    0.02421895
     atom    9 type  1   force =    -0.04948458   -0.10282978    0.06817409
     atom   10 type  1   force =     0.03459280   -0.06578011   -0.05449887
     atom   11 type  1   force =    -0.05849206    0.01995233    0.06701424
     atom   12 type  1   force =    -0.03969443    0.02093737    0.05646576
     atom   13 type  2   force =    -0.03127336    0.01329668    0.02811533
     atom   14 type  2   force =    -0.00746539    0.07185348    0.00013426
     atom   15 type  2   force =     0.05132339   -0.02358553   -0.02990114
     atom   16 type  2   force =     0.03936319    0.00743153   -0.00979485
     atom   17 type  2   force =     0.01569697    0.00768426   -0.01340743
     atom   18 type  2   force =    -0.01211439    0.05243242    0.01668228
     atom   19 type  2   force =    -0.01931052    0.01263129    0.04239146
     atom   20 type  2   force =    -0.02970936    0.03864940    0.02150454
     atom   21 type  2   force =    -0.00006906    0.02014844    0.02758615
     atom   22 type  2   force =     0.04066206    0.01266574    0.04717512
     atom   23 type  2   force =    -0.00213040    0.02894145   -0.00359252
     atom   24 type  2   force =    -0.01285477   -0.03009611   -0.02234950
     atom   25 type  2   force =    -0.00774292   -0.01047595    0.04051327
     atom   26 type  2   force =     0.00438381    0.00914680   -0.03306811
     atom   27 type  2   force =    -0.00144271    0.04686715   -0.03505573
     atom   28 type  2   force =    -0.01277195   -0.00596466   -0.01786618
     atom   29 type  2   force =    -0.01488462   -0.00687345   -0.04069570
     atom   30 type  2   force =    -0.02798551    0.00742913    0.04211133
     atom   31 type  2   force =     0.04517311   -0.01429927   -0.01274281
     atom   32 type  2   force =    -0.04150771   -0.01954118   -0.01730996
     atom   33 type  2   force =     0.04281377    0.04566007   -0.05584692
     atom   34 type  2   force =     0.02654253    0.00617221    0.04361485
     atom   35 type  2   force =     0.01472600   -0.03290725   -0.06545160
     atom   36 type  2   force =    -0.02698574    0.00577957    0.00650706

     Total force =     0.408527     Total SCF correction =     0.000796
 
     init_run     :      3.21s CPU      3.36s WALL (       1 calls)
     electrons    :     85.25s CPU     87.39s WALL (       1 calls)
     forces       :      1.83s CPU      1.89s WALL (       1 calls)

     Called by init_run:
     wfcinit      :      2.09s CPU      2.14s WALL (       1 calls)
     potinit      :      0.24s CPU      0.24s WALL (       1 calls)
     hinit0       :      0.32s CPU      0.33s WALL (       1 calls)

     Called by electrons:
     c_bands      :     67.84s CPU     68.69s WALL (      15 calls)
     sum_band     :     12.75s CPU     13.63s WALL (      15 calls)
     v_of_rho     :      0.93s CPU      0.97s WALL (      16 calls)
     newd         :      2.94s CPU      3.34s WALL (      16 calls)
     mix_rho      :      0.89s CPU      0.90s WALL (      15 calls)

     Called by c_bands:
     init_us_2    :      1.61s CPU      1.62s WALL (     160 calls)
     cegterg      :     63.06s CPU     63.87s WALL (      75 calls)

     Called by sum_band:
     sum_band:bec :      0.12s CPU      0.12s WALL (      75 calls)
     addusdens    :      4.62s CPU      5.31s WALL (      15 calls)

     Called by *egterg:
     h_psi        :     32.89s CPU     33.49s WALL (     301 calls)
     s_psi        :      6.53s CPU      6.53s WALL (     301 calls)
     g_psi        :      0.16s CPU      0.16s WALL (     221 calls)
     cdiaghg      :     13.38s CPU     13.56s WALL (     296 calls)

     Called by h_psi:
     h_psi:pot    :     32.52s CPU     33.12s WALL (     301 calls)
     h_psi:calbec :      7.27s CPU      7.49s WALL (     301 calls)
     vloc_psi     :     18.61s CPU     18.98s WALL (     301 calls)
     add_vuspsi   :      6.63s CPU      6.64s WALL (     301 calls)

     General routines
     calbec       :     10.76s CPU     11.08s WALL (     396 calls)
     fft          :      0.75s CPU      0.80s WALL (     217 calls)
     ffts         :      0.37s CPU      0.37s WALL (     431 calls)
     fftw         :     20.84s CPU     21.25s WALL (   59136 calls)
     interpolate  :      0.08s CPU      0.08s WALL (      16 calls)
 
     Parallel routines
     fft_scatt_xy :      2.36s CPU      2.41s WALL (   59784 calls)
     fft_scatt_yz :      9.32s CPU      9.54s WALL (   59784 calls)
 
     PWSCF        :   1m31.05s CPU   1m33.48s WALL

 
   This run was terminated on:   0:16:18  25Dec2021            

=------------------------------------------------------------------------------=
   JOB DONE.
=------------------------------------------------------------------------------=
