
     Program PWSCF v.6.4 starts on 24Dec2021 at 23:42:10 

     This program is part of the open-source Quantum ESPRESSO suite
     for quantum simulation of materials; please cite
         "P. Giannozzi et al., J. Phys.:Condens. Matter 21 395502 (2009);
         "P. Giannozzi et al., J. Phys.:Condens. Matter 29 465901 (2017);
          URL http://www.quantum-espresso.org", 
     in publications or presentations arising from this work. More details at
     http://www.quantum-espresso.org/quote

     Parallel version (MPI), running on    40 processors

     MPI processes distributed on     1 nodes
     R & G space division:  proc/nbgrp/npool/nimage =      40
     Waiting for input...
     Reading input from standard input
Warning: card    &IONS ignored
Warning: card      ION_DYNAMICS = 'BFGS' ignored
Warning: card   / ignored
Warning: card    &CELL ignored
Warning: card      CELL_DYNAMICS = 'BFGS', ignored
Warning: card    / ignored

     Current dimensions of program PWSCF are:
     Max number of different atomic species (ntypx) = 10
     Max number of k-points (npk) =  40000
     Max angular momentum in pseudopotentials (lmaxx) =  3

     Subspace diagonalization in iterative solution of the eigenvalue problem:
     one sub-group per band group will be used
     scalapack distributed-memory algorithm (size of sub-group:  4*  4 procs)

 
     Parallelization info
     --------------------
     sticks:   dense  smooth     PW     G-vecs:    dense   smooth      PW
     Min          84      41     11                13200     4651     675
     Max          87      42     12                13213     4674     688
     Sum        3403    1675    475               528121   186675   27225
 


     bravais-lattice index     =            0
     lattice parameter (alat)  =      11.6674  a.u.
     unit-cell volume          =    4580.0124 (a.u.)^3
     number of atoms/cell      =           36
     number of atomic types    =            2
     number of electrons       =       216.00
     number of Kohn-Sham states=          130
     kinetic-energy cutoff     =      45.0000  Ry
     charge density cutoff     =     360.0000  Ry
     convergence threshold     =      1.0E-06
     mixing beta               =       0.7000
     number of iterations used =            8  local-TF  mixing
     Exchange-correlation      = SLA PW GGX GGC ( 1  4  2  2 0 0)

     celldm(1)=  11.667417  celldm(2)=   0.000000  celldm(3)=   0.000000
     celldm(4)=   0.000000  celldm(5)=   0.000000  celldm(6)=   0.000000

     crystal axes: (cart. coord. in units of alat)
               a(1) = (   1.000000   0.000000   0.000000 )  
               a(2) = (  -0.500000   0.866026   0.000000 )  
               a(3) = (   0.000000   0.000000   3.329751 )  

     reciprocal axes: (cart. coord. in units 2 pi/alat)
               b(1) = (  1.000000  0.577350  0.000000 )  
               b(2) = (  0.000000  1.154700  0.000000 )  
               b(3) = (  0.000000  0.000000  0.300323 )  


     PseudoPot. # 1 for Mo read from file:
     ~/pseudo/Mo.pw91-n-van.UPF
     MD5 check sum: Not computed, couldn't open file
     Pseudo is Ultrasoft + core correction, Zval =  6.0
     Generated by new atomic code, or converted to UPF format
     Using radial grid of  965 points,  3 beta functions with: 
                l(1) =   1
                l(2) =   2
                l(3) =   2
     Q(r) pseudized with  8 coefficients,  rinner =    1.000   1.000   1.000
                                                       1.200   1.200

     PseudoPot. # 2 for S  read from file:
     ~/pseudo/S.pw91-van_ak.UPF
     MD5 check sum: Not computed, couldn't open file
     Pseudo is Ultrasoft, Zval =  6.0
     Generated by new atomic code, or converted to UPF format
     Using radial grid of  811 points,  6 beta functions with: 
                l(1) =   0
                l(2) =   0
                l(3) =   1
                l(4) =   1
                l(5) =   2
                l(6) =   2
     Q(r) pseudized with  8 coefficients,  rinner =    1.100   1.100   1.100
                                                       1.100   1.100

     atomic species   valence    mass     pseudopotential
        Mo             6.00    95.50000     Mo( 1.00)
        S              6.00    32.06500     S ( 1.00)

     No symmetry found



   Cartesian axes

     site n.     atom                  positions (alat units)
         1           Mo  tau(   1) = (   0.1199444   0.7939569   1.1013490  )
         2           Mo  tau(   2) = (   0.3727262   0.0753778   2.2106247  )
         3           Mo  tau(   3) = (   0.3810750   0.6424390   3.3290530  )
         4           Mo  tau(   4) = (   0.3692563   0.3593484   1.1163864  )
         5           Mo  tau(   5) = (   0.6313883   0.5021404   2.2130041  )
         6           Mo  tau(   6) = (   0.6198652   0.2090807   3.3267039  )
         7           Mo  tau(   7) = (   0.8748753   0.0685803   2.2276950  )
         8           Mo  tau(   8) = (  -0.1173263   0.3629612   1.1043237  )
         9           Mo  tau(   9) = (  -0.3724893   0.8007301   1.1149757  )
        10           Mo  tau(  10) = (   0.1250048   0.5036895   2.2282936  )
        11           Mo  tau(  11) = (   0.1230601   0.2091309   3.3344287  )
        12           Mo  tau(  12) = (  -0.1340073   0.6473958   3.3302362  )
        13           S   tau(  13) = (   0.1219978   0.7861661   1.9779356  )
        14           S   tau(  14) = (   0.1265645   0.7979739   2.4727503  )
        15           S   tau(  15) = (   0.3734021   0.0766683   3.0755580  )
        16           S   tau(  16) = (   0.3695248   0.0776769   0.2498906  )
        17           S   tau(  17) = (   0.3699525   0.6489966   0.8558003  )
        18           S   tau(  18) = (   0.3758718   0.6551468   1.3473379  )
        19           S   tau(  19) = (   0.3657984   0.3603356   1.9721404  )
        20           S   tau(  20) = (   0.3789968   0.3542463   2.4592787  )
        21           S   tau(  21) = (   0.6246515   0.5043044   3.0742915  )
        22           S   tau(  22) = (   0.6232234   0.5067926   0.2357055  )
        23           S   tau(  23) = (   0.6214426   0.2128194   0.8558323  )
        24           S   tau(  24) = (   0.6253069   0.2139362   1.3457644  )
        25           S   tau(  25) = (   0.8758998   0.0676554   3.0916879  )
        26           S   tau(  26) = (   0.8778694   0.0729350   0.2535651  )
        27           S   tau(  27) = (  -0.1252464   0.3608598   1.9829168  )
        28           S   tau(  28) = (  -0.1229638   0.3532465   2.4595093  )
        29           S   tau(  29) = (  -0.3736038   0.7912575   1.9647403  )
        30           S   tau(  30) = (  -0.3754925   0.7846332   2.4632143  )
        31           S   tau(  31) = (   0.1340240   0.5040331   3.0815042  )
        32           S   tau(  32) = (   0.1244285   0.5063813   0.2354871  )
        33           S   tau(  33) = (   0.1255367   0.2167855   0.8543191  )
        34           S   tau(  34) = (   0.1207379   0.2226288   1.3491251  )
        35           S   tau(  35) = (  -0.1183156   0.6430115   0.8635622  )
        36           S   tau(  36) = (  -0.1242227   0.6569464   1.3603191  )

     number of k points=     5  Marzari-Vanderbilt smearing, width (Ry)=  0.0200
                       cart. coord. in units 2pi/alat
        k(    1) = (   0.0000000   0.0000000   0.0000000), wk =   0.2222222
        k(    2) = (   0.0000000   0.3849001   0.0000000), wk =   0.4444444
        k(    3) = (   0.3333333   0.5773502   0.0000000), wk =   0.4444444
        k(    4) = (  -0.3333333   0.1924501   0.0000000), wk =   0.4444444
        k(    5) = (   0.3333333   0.1924501   0.0000000), wk =   0.4444444

     Dense  grid:   528121 G-vectors     FFT dimensions: (  72,  72, 240)

     Smooth grid:   186675 G-vectors     FFT dimensions: (  50,  50, 180)

     Estimated max dynamical RAM per process >      84.86 MB

     Estimated total dynamical RAM >       3.31 GB

     Initial potential from superposition of free atoms

     starting charge  215.98107, renormalised to  216.00000
     Starting wfcs are  204 randomized atomic wfcs

     total cpu time spent up to now is        3.7 secs

     Self-consistent Calculation

     iteration #  1     ecut=    45.00 Ry     beta= 0.70
     Davidson diagonalization with overlap
     ethr =  1.00E-02,  avg # of iterations =  2.2

     total cpu time spent up to now is        9.4 secs

     total energy              =    -844.25163149 Ry
     Harris-Foulkes estimate   =    -846.08249457 Ry
     estimated scf accuracy    <       4.49541844 Ry

     iteration #  2     ecut=    45.00 Ry     beta= 0.70
     Davidson diagonalization with overlap
     ethr =  2.08E-03,  avg # of iterations =  2.2

     total cpu time spent up to now is       14.3 secs

     total energy              =    -845.06301809 Ry
     Harris-Foulkes estimate   =    -845.15051795 Ry
     estimated scf accuracy    <       0.49291305 Ry

     iteration #  3     ecut=    45.00 Ry     beta= 0.70
     Davidson diagonalization with overlap
     ethr =  2.28E-04,  avg # of iterations =  2.0

     total cpu time spent up to now is       18.7 secs

     total energy              =    -845.03188545 Ry
     Harris-Foulkes estimate   =    -845.10294965 Ry
     estimated scf accuracy    <       0.17295889 Ry

     iteration #  4     ecut=    45.00 Ry     beta= 0.70
     Davidson diagonalization with overlap
     ethr =  8.01E-05,  avg # of iterations =  5.0

     total cpu time spent up to now is       25.5 secs

     total energy              =    -845.07265754 Ry
     Harris-Foulkes estimate   =    -845.09121117 Ry
     estimated scf accuracy    <       0.06297007 Ry

     iteration #  5     ecut=    45.00 Ry     beta= 0.70
     Davidson diagonalization with overlap
     ethr =  2.92E-05,  avg # of iterations =  2.8

     total cpu time spent up to now is       30.3 secs

     total energy              =    -845.08084525 Ry
     Harris-Foulkes estimate   =    -845.08117690 Ry
     estimated scf accuracy    <       0.00166809 Ry

     iteration #  6     ecut=    45.00 Ry     beta= 0.70
     Davidson diagonalization with overlap
     c_bands:  1 eigenvalues not converged
     c_bands:  1 eigenvalues not converged
     c_bands:  1 eigenvalues not converged
     ethr =  7.72E-07,  avg # of iterations = 17.2

     total cpu time spent up to now is       43.2 secs

     total energy              =    -845.08148297 Ry
     Harris-Foulkes estimate   =    -845.08292577 Ry
     estimated scf accuracy    <       0.00697481 Ry

     iteration #  7     ecut=    45.00 Ry     beta= 0.70
     Davidson diagonalization with overlap
     ethr =  7.72E-07,  avg # of iterations =  4.8

     total cpu time spent up to now is       49.5 secs

     total energy              =    -845.08195299 Ry
     Harris-Foulkes estimate   =    -845.08199595 Ry
     estimated scf accuracy    <       0.00044046 Ry

     iteration #  8     ecut=    45.00 Ry     beta= 0.70
     Davidson diagonalization with overlap
     ethr =  2.04E-07,  avg # of iterations =  1.0

     total cpu time spent up to now is       53.5 secs

     total energy              =    -845.08188034 Ry
     Harris-Foulkes estimate   =    -845.08196433 Ry
     estimated scf accuracy    <       0.00028033 Ry

     iteration #  9     ecut=    45.00 Ry     beta= 0.70
     Davidson diagonalization with overlap
     ethr =  1.30E-07,  avg # of iterations =  2.8

     total cpu time spent up to now is       58.8 secs

     total energy              =    -845.08193883 Ry
     Harris-Foulkes estimate   =    -845.08194085 Ry
     estimated scf accuracy    <       0.00001966 Ry

     iteration # 10     ecut=    45.00 Ry     beta= 0.70
     Davidson diagonalization with overlap
     ethr =  9.10E-09,  avg # of iterations =  2.4

     total cpu time spent up to now is       63.7 secs

     total energy              =    -845.08193984 Ry
     Harris-Foulkes estimate   =    -845.08194128 Ry
     estimated scf accuracy    <       0.00001225 Ry

     iteration # 11     ecut=    45.00 Ry     beta= 0.70
     Davidson diagonalization with overlap
     ethr =  5.67E-09,  avg # of iterations =  1.0

     total cpu time spent up to now is       67.6 secs

     total energy              =    -845.08193969 Ry
     Harris-Foulkes estimate   =    -845.08194011 Ry
     estimated scf accuracy    <       0.00000639 Ry

     iteration # 12     ecut=    45.00 Ry     beta= 0.70
     Davidson diagonalization with overlap
     ethr =  2.96E-09,  avg # of iterations =  1.0

     total cpu time spent up to now is       71.6 secs

     total energy              =    -845.08193876 Ry
     Harris-Foulkes estimate   =    -845.08193983 Ry
     estimated scf accuracy    <       0.00000374 Ry

     iteration # 13     ecut=    45.00 Ry     beta= 0.70
     Davidson diagonalization with overlap
     ethr =  1.73E-09,  avg # of iterations =  2.8

     total cpu time spent up to now is       76.7 secs

     End of self-consistent calculation

          k = 0.0000 0.0000 0.0000 ( 23375 PWs)   bands (ev):

    -7.3825  -7.3209  -7.2967  -5.8554  -5.8479  -5.7814  -5.3578  -5.2720
    -5.2645  -5.2065  -5.1807  -5.1546  -5.1508  -5.1251  -5.1058  -5.0457
    -4.9877  -4.9734  -4.9664  -4.9314  -4.8988  -4.8900  -4.8224  -4.8111
     1.0295   1.0421   1.0444   1.0614   1.0689   1.0974   1.1154   1.1282
     1.1631   1.1838   1.3293   1.3820   2.0846   2.1013   2.1357   2.1546
     2.1751   2.1983   2.2062   2.2419   2.2605   2.7781   2.8094   2.8477
     2.9120   2.9320   2.9541   2.9711   3.0138   3.0359   3.7522   3.7720
     3.8098   3.8184   3.8693   3.9047   3.9178   3.9943   4.0018   4.3280
     4.3857   4.4072   4.4592   4.4986   4.5363   5.1556   5.2098   5.2656
     5.2930   5.4113   5.4196   5.4388   5.4683   5.5014   5.5479   5.5774
     5.6243   5.6298   5.7639   5.8272   5.8606   6.0136   6.1031   6.3946
     6.4522   6.4681   6.4757   6.4916   6.5104   6.5172   6.5659   6.6091
     6.6413   6.6851   6.7070   6.7306   6.7479   6.7741   6.7915   6.7996
     6.8429   7.0288   7.5751   7.6120   9.7025   9.7104   9.7263   9.7524
     9.7856   9.7904   9.8099   9.8614   9.8784  10.2628  10.3036  10.3465
    10.3659  10.3711  10.3807  10.3845  10.4174  10.4258  10.4542  10.4618
    10.5057  10.6231

          k = 0.0000 0.3849 0.0000 ( 23328 PWs)   bands (ev):

    -6.9414  -6.8837  -6.8561  -5.8820  -5.8575  -5.8255  -5.6659  -5.6482
    -5.5929  -5.3533  -5.2812  -5.2716  -5.2649  -5.2158  -5.1895  -5.1258
    -5.1085  -5.0857  -4.9977  -4.9460  -4.8801  -4.8765  -4.8614  -4.8491
     1.4389   1.4823   1.4946   1.5343   1.5441   1.5777   1.5911   1.6095
     1.6381   1.6738   1.7691   1.8060   1.9113   1.9696   2.0059   2.0356
     2.0760   2.0954   2.7628   2.7946   2.8764   3.1177   3.1481   3.1933
     3.2410   3.2533   3.2902   3.3178   3.3402   3.3809   3.6483   3.6621
     3.6765   3.8238   3.8281   3.8763   3.8911   3.9425   3.9586   4.0826
     4.1601   4.1927   4.2179   4.2965   4.4083   4.8213   4.8307   4.8469
     4.8568   4.8844   4.8962   4.9522   4.9911   5.0087   5.1436   5.1934
     5.2776   5.5449   5.5667   5.6161   5.6406   5.6736   5.6949   5.7084
     5.7376   5.9053   5.9936   6.0519   6.0738   6.1601   6.2000   6.2086
     6.3138   6.4065   6.6194   6.7585   6.7971   6.8152   6.8775   6.9057
     6.9164   6.9700   7.1960   7.2120   9.5732   9.6276   9.7037   9.7321
     9.7562   9.7715   9.8160   9.8355   9.8644   9.8888   9.9209   9.9614
     9.9990  10.0407  10.0809  10.1885  10.2241  10.2462  10.2981  10.3347
    10.3511  10.4102

          k = 0.3333 0.5774 0.0000 ( 23346 PWs)   bands (ev):

    -6.3060  -6.2174  -6.1911  -6.1582  -6.1356  -6.1168  -6.0691  -6.0274
    -6.0041  -5.4085  -5.3935  -5.3873  -5.3212  -5.3145  -5.3091  -5.2810
    -5.2292  -5.2100  -4.8973  -4.8563  -4.8495  -4.7583  -4.7006  -4.6730
     1.3062   1.3684   1.3729   1.7215   1.7974   1.8297   1.8766   1.9080
     1.9405   1.9715   2.0230   2.0482   2.3776   2.4117   2.4245   2.8691
     2.9258   2.9399   3.1554   3.1847   3.2038   3.2071   3.2552   3.2912
     3.3064   3.3257   3.3339   3.3639   3.3878   3.4041   3.4226   3.4368
     3.4630   3.4805   3.5149   3.5555   3.6065   3.6584   3.6646   3.8081
     3.8449   3.8487   3.8953   3.9302   3.9608   3.9768   4.0396   4.0601
     4.2991   4.3229   4.3335   5.1208   5.1266   5.1353   5.1879   5.2075
     5.2159   5.2375   5.2934   5.3282   5.3295   5.4440   5.4700   6.2134
     6.2406   6.2583   6.2945   6.3376   6.3522   6.3864   6.4189   6.4436
     6.4736   6.4868   6.5190   6.5467   6.5600   6.6072   6.6245   6.6625
     6.7146   7.3408   7.3736   7.3921   9.1030   9.1342   9.1830   9.2474
     9.2966   9.3614   9.4736   9.5068   9.5288   9.5794   9.6286   9.6538
    10.0016  10.0148  10.0368  10.0596  10.0895  10.1025  10.1209  10.1530
    10.1742  10.3088

          k =-0.3333 0.1925 0.0000 ( 23328 PWs)   bands (ev):

    -6.9410  -6.8805  -6.8574  -5.9048  -5.8382  -5.8216  -5.6662  -5.6551
    -5.6011  -5.2878  -5.2787  -5.2711  -5.2557  -5.2147  -5.1975  -5.1766
    -5.1213  -5.1011  -4.9650  -4.9338  -4.9105  -4.8833  -4.8527  -4.8417
     1.4528   1.4863   1.5159   1.5248   1.5467   1.5658   1.5832   1.6147
     1.6437   1.6623   1.7560   1.8036   1.9377   1.9546   1.9851   1.9993
     2.0479   2.0653   2.7553   2.7896   2.8756   3.1206   3.1613   3.1893
     3.2414   3.2799   3.2917   3.3080   3.3553   3.3874   3.6547   3.6660
     3.6793   3.8154   3.8258   3.8638   3.8955   3.9472   4.0067   4.1233
     4.1630   4.2159   4.2603   4.2822   4.3724   4.7654   4.8199   4.8615
     4.8801   4.9160   4.9351   4.9707   4.9870   5.0103   5.1329   5.2217
     5.2555   5.4988   5.5478   5.6046   5.6438   5.6527   5.6847   5.7247
     5.7757   5.9022   5.9551   5.9696   6.0758   6.1164   6.1740   6.2830
     6.3468   6.3813   6.6154   6.7206   6.7952   6.8416   6.8612   6.9033
     6.9541   7.0464   7.1759   7.2163   9.5671   9.6212   9.6776   9.7096
     9.7502   9.7803   9.8153   9.8360   9.8670   9.8923   9.9350   9.9711
     9.9904  10.0581  10.1069  10.2321  10.2607  10.2823  10.3438  10.3681
    10.4001  10.4222

          k = 0.3333 0.1925 0.0000 ( 23328 PWs)   bands (ev):

    -6.9430  -6.8775  -6.8563  -5.9206  -5.8334  -5.8147  -5.6654  -5.6566
    -5.6052  -5.2960  -5.2708  -5.2475  -5.2313  -5.1932  -5.1845  -5.1703
    -5.1591  -5.1190  -4.9884  -4.9826  -4.9354  -4.9109  -4.8031  -4.7880
     1.4440   1.4773   1.5008   1.5264   1.5476   1.5773   1.5906   1.6194
     1.6385   1.6643   1.7691   1.8197   1.9351   1.9611   1.9814   1.9897
     2.0107   2.0930   2.7760   2.7914   2.8820   3.1150   3.1434   3.1836
     3.2355   3.2768   3.2975   3.3164   3.3677   3.3878   3.6125   3.6421
     3.6683   3.8066   3.8635   3.8976   3.9160   3.9752   4.0008   4.0817
     4.1400   4.1936   4.2608   4.3475   4.3844   4.7990   4.8114   4.8374
     4.8648   4.8953   4.9282   4.9407   4.9832   4.9920   5.0820   5.2536
     5.3163   5.5265   5.5658   5.6072   5.6235   5.6678   5.6931   5.7361
     5.7657   5.8977   5.9842   6.0111   6.0760   6.1374   6.1934   6.2595
     6.2846   6.3538   6.6129   6.6683   6.7758   6.8117   6.8586   6.8930
     6.9572   7.0980   7.1443   7.2157   9.5492   9.6042   9.6687   9.7147
     9.7554   9.7715   9.8036   9.8173   9.8725   9.8973   9.9515   9.9789
    10.0253  10.0327  10.0855  10.2203  10.2791  10.3128  10.3548  10.3591
    10.3783  10.4034

     the Fermi energy is     7.5921 ev

!    total energy              =    -845.08193926 Ry
     Harris-Foulkes estimate   =    -845.08193944 Ry
     estimated scf accuracy    <       0.00000022 Ry

     The total energy is the sum of the following terms:

     one-electron contribution =    -116.16245582 Ry
     hartree contribution      =     189.54413209 Ry
     xc contribution           =    -337.84593515 Ry
     ewald contribution        =    -580.63199654 Ry
     smearing contrib. (-TS)   =       0.01431615 Ry

     convergence has been achieved in  13 iterations

     Forces acting on atoms (cartesian axes, Ry/au):

     atom    1 type  1   force =     0.04713868    0.00142361    0.02731537
     atom    2 type  1   force =     0.00475839   -0.06477309    0.05674571
     atom    3 type  1   force =    -0.05231216    0.05665933   -0.01806623
     atom    4 type  1   force =     0.05261718    0.03347016   -0.12157244
     atom    5 type  1   force =    -0.07887782    0.01489741    0.02788089
     atom    6 type  1   force =     0.02807515    0.03586896    0.01808864
     atom    7 type  1   force =     0.01078772   -0.03552987   -0.09216106
     atom    8 type  1   force =    -0.08778942   -0.01136614    0.00181049
     atom    9 type  1   force =    -0.00909239   -0.05136099   -0.10882014
     atom   10 type  1   force =     0.01248884    0.02040155   -0.02676052
     atom   11 type  1   force =     0.01022230    0.05436946   -0.05590998
     atom   12 type  1   force =     0.08209607    0.03971090   -0.07333559
     atom   13 type  2   force =     0.02284608    0.01553170   -0.09604962
     atom   14 type  2   force =    -0.03357257   -0.00718272    0.07674223
     atom   15 type  2   force =    -0.01631613   -0.03167568   -0.06294641
     atom   16 type  2   force =     0.01996054   -0.03758851    0.09186232
     atom   17 type  2   force =     0.03258995   -0.00372515   -0.04338722
     atom   18 type  2   force =    -0.02139601   -0.00240689    0.12359585
     atom   19 type  2   force =     0.02115789    0.02490160   -0.10230771
     atom   20 type  2   force =     0.01306769    0.01595142    0.11614455
     atom   21 type  2   force =     0.00711453   -0.02325202   -0.07261279
     atom   22 type  2   force =     0.00826046   -0.04956521    0.16149422
     atom   23 type  2   force =     0.00149332    0.03372435   -0.05777911
     atom   24 type  2   force =     0.01643130    0.01039969    0.11653514
     atom   25 type  2   force =    -0.00266598   -0.00228936   -0.12080661
     atom   26 type  2   force =    -0.03082045   -0.02395068    0.07014472
     atom   27 type  2   force =     0.03741380   -0.03401912   -0.14040142
     atom   28 type  2   force =    -0.01529768    0.02658695    0.15550605
     atom   29 type  2   force =    -0.02259235    0.00906554   -0.06768365
     atom   30 type  2   force =     0.02793736    0.01369494    0.09163038
     atom   31 type  2   force =    -0.04287985   -0.01375758   -0.06557248
     atom   32 type  2   force =    -0.00995883   -0.00356338    0.12854704
     atom   33 type  2   force =     0.01327756   -0.00825599   -0.06502015
     atom   34 type  2   force =    -0.00011308   -0.00974958    0.16755990
     atom   35 type  2   force =    -0.05212998    0.03120253   -0.11566617
     atom   36 type  2   force =     0.00607990   -0.02384815    0.07525579

     Total force =     0.624449     Total SCF correction =     0.001047
 
     init_run     :      2.81s CPU      2.95s WALL (       1 calls)
     electrons    :     70.93s CPU     73.00s WALL (       1 calls)
     forces       :      1.72s CPU      1.78s WALL (       1 calls)

     Called by init_run:
     wfcinit      :      1.87s CPU      1.93s WALL (       1 calls)
     potinit      :      0.20s CPU      0.20s WALL (       1 calls)
     hinit0       :      0.28s CPU      0.30s WALL (       1 calls)

     Called by electrons:
     c_bands      :     57.27s CPU     58.14s WALL (      13 calls)
     sum_band     :     10.12s CPU     10.95s WALL (      13 calls)
     v_of_rho     :      0.66s CPU      0.68s WALL (      14 calls)
     newd         :      2.42s CPU      2.80s WALL (      14 calls)
     mix_rho      :      0.52s CPU      0.53s WALL (      13 calls)

     Called by c_bands:
     init_us_2    :      1.34s CPU      1.35s WALL (     140 calls)
     cegterg      :     53.61s CPU     54.45s WALL (      65 calls)

     Called by sum_band:
     sum_band:bec :      0.11s CPU      0.11s WALL (      65 calls)
     addusdens    :      3.81s CPU      4.45s WALL (      13 calls)

     Called by *egterg:
     h_psi        :     27.40s CPU     28.07s WALL (     306 calls)
     s_psi        :      5.54s CPU      5.54s WALL (     306 calls)
     g_psi        :      0.12s CPU      0.12s WALL (     236 calls)
     cdiaghg      :     12.17s CPU     12.31s WALL (     301 calls)

     Called by h_psi:
     h_psi:pot    :     27.12s CPU     27.78s WALL (     306 calls)
     h_psi:calbec :      6.33s CPU      6.64s WALL (     306 calls)
     vloc_psi     :     15.12s CPU     15.46s WALL (     306 calls)
     add_vuspsi   :      5.66s CPU      5.67s WALL (     306 calls)

     General routines
     calbec       :      9.24s CPU      9.68s WALL (     391 calls)
     fft          :      0.45s CPU      0.47s WALL (     191 calls)
     ffts         :      0.23s CPU      0.24s WALL (     299 calls)
     fftw         :     16.79s CPU     17.17s WALL (   53822 calls)
     interpolate  :      0.06s CPU      0.06s WALL (      14 calls)
 
     Parallel routines
     fft_scatt_xy :      1.89s CPU      1.93s WALL (   54312 calls)
     fft_scatt_yz :      8.12s CPU      8.33s WALL (   54312 calls)
 
     PWSCF        :   1m16.21s CPU   1m18.60s WALL

 
   This run was terminated on:  23:43:29  24Dec2021            

=------------------------------------------------------------------------------=
   JOB DONE.
=------------------------------------------------------------------------------=
