
     Program PWSCF v.6.4 starts on 14Oct2021 at 11:33:11 

     This program is part of the open-source Quantum ESPRESSO suite
     for quantum simulation of materials; please cite
         "P. Giannozzi et al., J. Phys.:Condens. Matter 21 395502 (2009);
         "P. Giannozzi et al., J. Phys.:Condens. Matter 29 465901 (2017);
          URL http://www.quantum-espresso.org", 
     in publications or presentations arising from this work. More details at
     http://www.quantum-espresso.org/quote

     Parallel version (MPI), running on    40 processors

     MPI processes distributed on     1 nodes
     R & G space division:  proc/nbgrp/npool/nimage =      40
     Waiting for input...
     Reading input from standard input
Warning: card    &IONS ignored
Warning: card      ION_DYNAMICS = 'BFGS' ignored
Warning: card   / ignored
Warning: card    &CELL ignored
Warning: card      CELL_DYNAMICS = 'BFGS', ignored
Warning: card    / ignored

     Current dimensions of program PWSCF are:
     Max number of different atomic species (ntypx) = 10
     Max number of k-points (npk) =  40000
     Max angular momentum in pseudopotentials (lmaxx) =  3

     Subspace diagonalization in iterative solution of the eigenvalue problem:
     one sub-group per band group will be used
     scalapack distributed-memory algorithm (size of sub-group:  4*  4 procs)

 
     Parallelization info
     --------------------
     sticks:   dense  smooth     PW     G-vecs:    dense   smooth      PW
     Min          91      45     12                14689     5185     747
     Max          92      46     13                14700     5198     765
     Sum        3657    1813    505               587721   207591   30243
 


     bravais-lattice index     =            0
     lattice parameter (alat)  =      12.1077  a.u.
     unit-cell volume          =    5093.6737 (a.u.)^3
     number of atoms/cell      =           24
     number of atomic types    =            2
     number of electrons       =       144.00
     number of Kohn-Sham states=           86
     kinetic-energy cutoff     =      45.0000  Ry
     charge density cutoff     =     360.0000  Ry
     convergence threshold     =      1.0E-06
     mixing beta               =       0.7000
     number of iterations used =            8  local-TF  mixing
     Exchange-correlation      = SLA PW GGX GGC ( 1  4  2  2 0 0)

     celldm(1)=  12.107744  celldm(2)=   0.000000  celldm(3)=   0.000000
     celldm(4)=   0.000000  celldm(5)=   0.000000  celldm(6)=   0.000000

     crystal axes: (cart. coord. in units of alat)
               a(1) = (   1.000000   0.000000   0.000000 )  
               a(2) = (  -0.498443   0.870182   0.000000 )  
               a(3) = (   0.182890  -0.400027   3.297853 )  

     reciprocal axes: (cart. coord. in units 2 pi/alat)
               b(1) = (  1.000000  0.572803  0.014023 )  
               b(2) = (  0.000000  1.149185  0.139395 )  
               b(3) = (  0.000000  0.000000  0.303228 )  


     PseudoPot. # 1 for Mo read from file:
     ~/pseudo/Mo.pw91-n-van.UPF
     MD5 check sum: Not computed, couldn't open file
     Pseudo is Ultrasoft + core correction, Zval =  6.0
     Generated by new atomic code, or converted to UPF format
     Using radial grid of  965 points,  3 beta functions with: 
                l(1) =   1
                l(2) =   2
                l(3) =   2
     Q(r) pseudized with  8 coefficients,  rinner =    1.000   1.000   1.000
                                                       1.200   1.200

     PseudoPot. # 2 for S  read from file:
     ~/pseudo/S.pw91-van_ak.UPF
     MD5 check sum: Not computed, couldn't open file
     Pseudo is Ultrasoft, Zval =  6.0
     Generated by new atomic code, or converted to UPF format
     Using radial grid of  811 points,  6 beta functions with: 
                l(1) =   0
                l(2) =   0
                l(3) =   1
                l(4) =   1
                l(5) =   2
                l(6) =   2
     Q(r) pseudized with  8 coefficients,  rinner =    1.100   1.100   1.100
                                                       1.100   1.100

     atomic species   valence    mass     pseudopotential
        Mo             6.00    95.50000     Mo( 1.00)
        S              6.00    32.06500     S ( 1.00)

     No symmetry found



   Cartesian axes

     site n.     atom                  positions (alat units)
         1           Mo  tau(   1) = (   0.1495406   0.1802725   0.6697349  )
         2           Mo  tau(   2) = (  -0.1009787   0.6192478   0.6681777  )
         3           Mo  tau(   3) = (   0.4024743   0.6167190   0.6674048  )
         4           Mo  tau(   4) = (   0.6517605   0.1822153   0.6689162  )
         5           Mo  tau(   5) = (   0.5286228   0.2903914   2.6388623  )
         6           Mo  tau(   6) = (   0.7838717  -0.1502792   2.6414351  )
         7           Mo  tau(   7) = (   0.2827288  -0.1483960   2.6383065  )
         8           Mo  tau(   8) = (   0.0345292   0.2927650   2.6352052  )
         9           S   tau(   9) = (   0.4016837   0.3264734   0.4234984  )
        10           S   tau(  10) = (   0.1515060   0.7629642   0.4214666  )
        11           S   tau(  11) = (  -0.3500994   0.7650280   0.4173880  )
        12           S   tau(  12) = (  -0.0982545   0.3300771   0.4228669  )
        13           S   tau(  13) = (   0.7845105   0.1443179   2.8821852  )
        14           S   tau(  14) = (   1.0345930  -0.2953085   2.8897792  )
        15           S   tau(  15) = (   0.5331354  -0.2944650   2.8896403  )
        16           S   tau(  16) = (   0.2811013   0.1416815   2.8811914  )
        17           S   tau(  17) = (   0.7803092   0.1436401   2.3952274  )
        18           S   tau(  18) = (   0.5298195   0.5801549   2.3900346  )
        19           S   tau(  19) = (   0.0346865   0.5826090   2.3883065  )
        20           S   tau(  20) = (   0.2813680   0.1428358   2.3908402  )
        21           S   tau(  21) = (   0.4010574   0.3279909   0.9134291  )
        22           S   tau(  22) = (   0.6476546  -0.1089882   0.9138231  )
        23           S   tau(  23) = (   0.1464162  -0.1077341   0.9190376  )
        24           S   tau(  24) = (  -0.1000829   0.3299297   0.9151017  )

     number of k points=     5  Marzari-Vanderbilt smearing, width (Ry)=  0.0200
                       cart. coord. in units 2pi/alat
        k(    1) = (   0.0000000   0.0000000   0.0000000), wk =   0.2222222
        k(    2) = (   0.0000000   0.3830616   0.0464651), wk =   0.4444444
        k(    3) = (   0.3333333   0.1909342   0.0046744), wk =   0.4444444
        k(    4) = (   0.3333333   0.5739958   0.0511396), wk =   0.4444444
        k(    5) = (   0.3333333  -0.1921273  -0.0417907), wk =   0.4444444

     Dense  grid:   587721 G-vectors     FFT dimensions: (  75,  75, 243)

     Smooth grid:   207591 G-vectors     FFT dimensions: (  54,  54, 180)

     Estimated max dynamical RAM per process >      81.64 MB

     Estimated total dynamical RAM >       3.19 GB

     Initial potential from superposition of free atoms

     starting charge  143.98738, renormalised to  144.00000

     negative rho (up, down):  1.379E-04 0.000E+00
     Starting wfcs are  136 randomized atomic wfcs

     total cpu time spent up to now is        3.5 secs

     Self-consistent Calculation

     iteration #  1     ecut=    45.00 Ry     beta= 0.70
     Davidson diagonalization with overlap
     ethr =  1.00E-02,  avg # of iterations =  2.0

     negative rho (up, down):  1.050E-06 0.000E+00

     total cpu time spent up to now is        7.5 secs

     total energy              =    -562.82390423 Ry
     Harris-Foulkes estimate   =    -564.56188565 Ry
     estimated scf accuracy    <       4.44317373 Ry

     iteration #  2     ecut=    45.00 Ry     beta= 0.70
     Davidson diagonalization with overlap
     ethr =  3.09E-03,  avg # of iterations =  2.8

     total cpu time spent up to now is       11.0 secs

     total energy              =    -563.64739429 Ry
     Harris-Foulkes estimate   =    -563.74869987 Ry
     estimated scf accuracy    <       0.54058585 Ry

     iteration #  3     ecut=    45.00 Ry     beta= 0.70
     Davidson diagonalization with overlap
     ethr =  3.75E-04,  avg # of iterations =  2.0

     total cpu time spent up to now is       14.1 secs

     total energy              =    -563.64017516 Ry
     Harris-Foulkes estimate   =    -563.69951534 Ry
     estimated scf accuracy    <       0.15167910 Ry

     iteration #  4     ecut=    45.00 Ry     beta= 0.70
     Davidson diagonalization with overlap
     ethr =  1.05E-04,  avg # of iterations =  3.6

     total cpu time spent up to now is       18.1 secs

     total energy              =    -563.66676417 Ry
     Harris-Foulkes estimate   =    -563.70870196 Ry
     estimated scf accuracy    <       0.13129688 Ry

     iteration #  5     ecut=    45.00 Ry     beta= 0.70
     Davidson diagonalization with overlap
     ethr =  9.12E-05,  avg # of iterations =  2.6

     total cpu time spent up to now is       21.3 secs

     total energy              =    -563.68774519 Ry
     Harris-Foulkes estimate   =    -563.68837889 Ry
     estimated scf accuracy    <       0.00701926 Ry

     iteration #  6     ecut=    45.00 Ry     beta= 0.70
     Davidson diagonalization with overlap
     ethr =  4.87E-06,  avg # of iterations =  7.2

     total cpu time spent up to now is       27.1 secs

     total energy              =    -563.68646197 Ry
     Harris-Foulkes estimate   =    -563.69023161 Ry
     estimated scf accuracy    <       0.01759825 Ry

     iteration #  7     ecut=    45.00 Ry     beta= 0.70
     Davidson diagonalization with overlap
     ethr =  4.87E-06,  avg # of iterations =  3.0

     total cpu time spent up to now is       30.5 secs

     total energy              =    -563.68781401 Ry
     Harris-Foulkes estimate   =    -563.68755931 Ry
     estimated scf accuracy    <       0.00208363 Ry

     iteration #  8     ecut=    45.00 Ry     beta= 0.70
     Davidson diagonalization with overlap
     ethr =  1.45E-06,  avg # of iterations =  2.6

     negative rho (up, down):  3.326E-07 0.000E+00

     total cpu time spent up to now is       33.7 secs

     total energy              =    -563.68803055 Ry
     Harris-Foulkes estimate   =    -563.68791121 Ry
     estimated scf accuracy    <       0.00165355 Ry

     iteration #  9     ecut=    45.00 Ry     beta= 0.70
     Davidson diagonalization with overlap
     ethr =  1.15E-06,  avg # of iterations =  5.0

     negative rho (up, down):  2.209E-04 0.000E+00

     total cpu time spent up to now is       38.4 secs

     total energy              =    -563.68844345 Ry
     Harris-Foulkes estimate   =    -563.68843338 Ry
     estimated scf accuracy    <       0.00037777 Ry

     iteration # 10     ecut=    45.00 Ry     beta= 0.70
     Davidson diagonalization with overlap
     ethr =  2.62E-07,  avg # of iterations =  1.4

     negative rho (up, down):  4.854E-04 0.000E+00

     total cpu time spent up to now is       41.7 secs

     total energy              =    -563.68840731 Ry
     Harris-Foulkes estimate   =    -563.68845565 Ry
     estimated scf accuracy    <       0.00029928 Ry

     iteration # 11     ecut=    45.00 Ry     beta= 0.70
     Davidson diagonalization with overlap
     ethr =  2.08E-07,  avg # of iterations =  1.8

     negative rho (up, down):  4.138E-04 0.000E+00

     total cpu time spent up to now is       45.1 secs

     total energy              =    -563.68840016 Ry
     Harris-Foulkes estimate   =    -563.68842075 Ry
     estimated scf accuracy    <       0.00008213 Ry

     iteration # 12     ecut=    45.00 Ry     beta= 0.70
     Davidson diagonalization with overlap
     ethr =  5.70E-08,  avg # of iterations =  3.0

     negative rho (up, down):  3.168E-04 0.000E+00

     total cpu time spent up to now is       49.0 secs

     total energy              =    -563.68841416 Ry
     Harris-Foulkes estimate   =    -563.68841568 Ry
     estimated scf accuracy    <       0.00000423 Ry

     iteration # 13     ecut=    45.00 Ry     beta= 0.70
     Davidson diagonalization with overlap
     ethr =  2.94E-09,  avg # of iterations =  4.0

     negative rho (up, down):  2.592E-04 0.000E+00

     total cpu time spent up to now is       53.3 secs

     total energy              =    -563.68841268 Ry
     Harris-Foulkes estimate   =    -563.68841550 Ry
     estimated scf accuracy    <       0.00000763 Ry

     iteration # 14     ecut=    45.00 Ry     beta= 0.70
     Davidson diagonalization with overlap
     ethr =  2.94E-09,  avg # of iterations =  3.0

     negative rho (up, down):  2.440E-04 0.000E+00

     total cpu time spent up to now is       56.6 secs

     End of self-consistent calculation

          k = 0.0000 0.0000 0.0000 ( 25907 PWs)   bands (ev):

   -11.9177 -11.9156 -10.7344 -10.7294 -10.1992 -10.1921 -10.1790 -10.1692
   -10.1269 -10.1238  -9.9395  -9.9282  -9.9174  -9.9058  -9.8924  -9.8667
    -3.5657  -3.5606  -3.5540  -3.5504  -3.5316  -3.5311  -3.4020  -3.3853
    -2.6364  -2.6226  -2.6121  -2.6079  -2.5988  -2.5948  -1.9414  -1.9391
    -1.9180  -1.9093  -1.8851  -1.8814  -1.0488  -1.0315  -1.0149  -1.0073
    -0.9637  -0.9580  -0.5065  -0.5062  -0.4674  -0.4570   0.1393   0.1487
     0.1638   0.2327   0.2628   0.2784   0.3680   0.4399   0.5891   0.6243
     0.6604   0.6777   1.0802   1.1054   1.1610   1.1643   1.2014   1.2180
     1.3925   1.4056   1.4211   1.4396   1.4613   1.4658   1.9942   2.0594
     4.0610   4.0940   4.1009   4.1129   4.1382   4.1471   4.6099   4.6200
     4.6240   4.6331   4.6386   4.6423   4.7743   4.7768

          k = 0.0000 0.3831 0.0465 ( 25972 PWs)   bands (ev):

   -11.5529 -11.5515 -10.7018 -10.6995 -10.5567 -10.5548 -10.2161 -10.2103
   -10.1610 -10.1601 -10.1554 -10.1435  -9.9079  -9.8966  -9.8762  -9.8646
    -3.1158  -3.1116  -3.0915  -3.0881  -3.0267  -3.0239  -2.9850  -2.9718
    -2.6929  -2.6915  -2.6815  -2.6680  -1.9944  -1.9878  -1.7900  -1.7769
    -1.6992  -1.6911  -1.6756  -1.6718  -1.2220  -1.2179  -1.0918  -1.0861
    -1.0645  -1.0527  -0.7450  -0.7218  -0.6482  -0.6469  -0.2475  -0.2435
    -0.1923  -0.1907  -0.0617  -0.0555   0.1247   0.1339   0.3034   0.3360
     0.3895   0.4068   0.4605   0.4779   0.7843   0.7908   0.9950   1.0360
     1.0852   1.0950   1.4647   1.5435   1.6203   1.6934   1.7251   1.7499
     4.0525   4.1139   4.1276   4.1386   4.1773   4.1928   4.2108   4.2442
     4.3024   4.3508   4.5366   4.5697   4.5893   4.6028

          k = 0.3333 0.1909 0.0047 ( 25953 PWs)   bands (ev):

   -11.5508 -11.5492 -10.6964 -10.6933 -10.5538 -10.5518 -10.2112 -10.1940
   -10.1831 -10.1677 -10.1443 -10.1411  -9.9178  -9.9124  -9.8812  -9.8733
    -3.1088  -3.1072  -3.0836  -3.0821  -3.0209  -3.0135  -2.9889  -2.9758
    -2.6803  -2.6787  -2.6652  -2.6577  -1.9903  -1.9838  -1.7787  -1.7703
    -1.7022  -1.6976  -1.6768  -1.6661  -1.2081  -1.2056  -1.0884  -1.0803
    -1.0527  -1.0391  -0.7249  -0.7051  -0.6918  -0.6886  -0.2502  -0.2455
    -0.2105  -0.1908  -0.0830  -0.0617   0.0865   0.0923   0.3174   0.3260
     0.3566   0.3882   0.4767   0.5075   0.7545   0.7607   1.0034   1.0447
     1.1064   1.1156   1.5318   1.5434   1.6370   1.6420   1.7404   1.7658
     4.0597   4.1089   4.1251   4.1398   4.1719   4.1880   4.2118   4.2633
     4.2964   4.3428   4.4947   4.5493   4.5591   4.5792

          k = 0.3333 0.5740 0.0511 ( 26018 PWs)   bands (ev):

   -10.9641 -10.9558 -10.9362 -10.9234 -10.9035 -10.9020 -10.2769 -10.2654
   -10.2647 -10.2545 -10.2420 -10.2234  -9.9220  -9.9191  -9.7440  -9.7413
    -3.1663  -3.1627  -2.7419  -2.7297  -2.7167  -2.6984  -2.6902  -2.6829
    -2.3836  -2.3820  -1.8906  -1.8898  -1.7383  -1.7196  -1.6872  -1.6732
    -1.6478  -1.6292  -1.4901  -1.4778  -1.4696  -1.4668  -1.4426  -1.4354
    -1.4267  -1.4162  -1.0661  -1.0588  -1.0257  -1.0086  -0.9961  -0.9580
    -0.7725  -0.7675  -0.0803  -0.0727   0.1098   0.1291   0.1537   0.1634
     0.2068   0.2458   0.9544   0.9768   1.0133   1.0288   1.0518   1.0666
     1.2447   1.2586   1.2757   1.2870   1.2977   1.3112   2.0383   2.0472
     3.6532   3.6793   3.8484   3.8689   3.9020   3.9138   3.9374   3.9676
     4.3559   4.3764   4.4013   4.4156   4.4367   4.4580

          k = 0.3333-0.1921-0.0418 ( 25936 PWs)   bands (ev):

   -11.5499 -11.5476 -10.6918 -10.6877 -10.5557 -10.5497 -10.2101 -10.2018
   -10.1798 -10.1770 -10.1363 -10.1351  -9.9262  -9.9129  -9.8945  -9.8710
    -3.1102  -3.1005  -3.0879  -3.0757  -3.0158  -3.0103  -2.9885  -2.9730
    -2.6792  -2.6670  -2.6560  -2.6547  -1.9898  -1.9827  -1.7721  -1.7652
    -1.7042  -1.6910  -1.6821  -1.6661  -1.2035  -1.1976  -1.0785  -1.0701
    -1.0468  -1.0349  -0.7302  -0.7198  -0.7043  -0.6875  -0.2588  -0.2323
    -0.2164  -0.1977  -0.0870  -0.0868   0.0626   0.0835   0.3187   0.3250
     0.3463   0.3748   0.4867   0.5122   0.7431   0.7476   1.0057   1.0476
     1.1101   1.1312   1.5476   1.5597   1.6254   1.6467   1.7421   1.7711
     4.0471   4.1025   4.1121   4.1161   4.1741   4.1805   4.2391   4.2856
     4.2964   4.3445   4.5083   4.5310   4.5498   4.5729

     the Fermi energy is     2.1301 ev

!    total energy              =    -563.68841290 Ry
     Harris-Foulkes estimate   =    -563.68841346 Ry
     estimated scf accuracy    <       0.00000029 Ry

     The total energy is the sum of the following terms:

     one-electron contribution =   -1251.94942227 Ry
     hartree contribution      =     685.73933349 Ry
     xc contribution           =    -222.74790885 Ry
     ewald contribution        =     225.25244831 Ry
     smearing contrib. (-TS)   =       0.01713642 Ry

     convergence has been achieved in  14 iterations

     negative rho (up, down):  2.440E-04 0.000E+00

     Forces acting on atoms (cartesian axes, Ry/au):

     atom    1 type  1   force =     0.00207631    0.01055784   -0.00441781
     atom    2 type  1   force =    -0.00081434    0.00010335   -0.00265031
     atom    3 type  1   force =    -0.00806121    0.00716464    0.00037968
     atom    4 type  1   force =    -0.00261958   -0.00077420   -0.00314281
     atom    5 type  1   force =     0.02077934   -0.00848962   -0.00558593
     atom    6 type  1   force =    -0.00891184    0.01927896   -0.00172709
     atom    7 type  1   force =    -0.00419305   -0.00070567   -0.00103673
     atom    8 type  1   force =    -0.01221718   -0.01502972    0.00667036
     atom    9 type  2   force =    -0.00274286   -0.00197101   -0.00401197
     atom   10 type  2   force =    -0.00015313   -0.00050995    0.00139014
     atom   11 type  2   force =     0.00185911   -0.00451309    0.01148967
     atom   12 type  2   force =    -0.00153330   -0.00474264   -0.00121204
     atom   13 type  2   force =    -0.00347754    0.00094668    0.00211022
     atom   14 type  2   force =    -0.00277548    0.00642822   -0.00734536
     atom   15 type  2   force =    -0.00166584    0.00612573   -0.01118984
     atom   16 type  2   force =    -0.00201545    0.00272177    0.01078919
     atom   17 type  2   force =     0.00210838   -0.00183391   -0.00265412
     atom   18 type  2   force =     0.00952436   -0.00508715    0.00632123
     atom   19 type  2   force =     0.00099038   -0.00426211    0.00803736
     atom   20 type  2   force =     0.00143406   -0.00071676   -0.00229372
     atom   21 type  2   force =    -0.00057569   -0.00346696    0.00583834
     atom   22 type  2   force =     0.00650408    0.00246010    0.00220532
     atom   23 type  2   force =     0.00476337   -0.00068734   -0.00967981
     atom   24 type  2   force =     0.00171709   -0.00299716    0.00171604

     Total force =     0.053149     Total SCF correction =     0.001726
 
     init_run     :      2.65s CPU      2.77s WALL (       1 calls)
     electrons    :     51.33s CPU     53.13s WALL (       1 calls)
     forces       :      1.46s CPU      1.52s WALL (       1 calls)

     Called by init_run:
     wfcinit      :      1.19s CPU      1.22s WALL (       1 calls)
     potinit      :      0.39s CPU      0.40s WALL (       1 calls)
     hinit0       :      0.53s CPU      0.54s WALL (       1 calls)

     Called by electrons:
     c_bands      :     34.51s CPU     35.00s WALL (      14 calls)
     sum_band     :      9.15s CPU     10.01s WALL (      14 calls)
     v_of_rho     :      0.88s CPU      0.93s WALL (      15 calls)
     newd         :      3.08s CPU      3.45s WALL (      15 calls)
     mix_rho      :      3.84s CPU      3.87s WALL (      14 calls)

     Called by c_bands:
     init_us_2    :      1.04s CPU      1.06s WALL (     150 calls)
     cegterg      :     31.66s CPU     32.14s WALL (      70 calls)

     Called by sum_band:
     sum_band:bec :      0.05s CPU      0.05s WALL (      70 calls)
     addusdens    :      4.79s CPU      5.54s WALL (      14 calls)

     Called by *egterg:
     h_psi        :     17.78s CPU     18.15s WALL (     295 calls)
     s_psi        :      2.63s CPU      2.64s WALL (     295 calls)
     g_psi        :      0.07s CPU      0.07s WALL (     220 calls)
     cdiaghg      :      6.64s CPU      6.73s WALL (     290 calls)

     Called by h_psi:
     h_psi:pot    :     17.60s CPU     17.96s WALL (     295 calls)
     h_psi:calbec :      2.95s CPU      3.05s WALL (     295 calls)
     vloc_psi     :     11.98s CPU     12.24s WALL (     295 calls)
     add_vuspsi   :      2.66s CPU      2.67s WALL (     295 calls)

     General routines
     calbec       :      4.23s CPU      4.37s WALL (     385 calls)
     fft          :      0.67s CPU      0.73s WALL (     204 calls)
     ffts         :      1.75s CPU      1.77s WALL (    2008 calls)
     fftw         :     13.21s CPU     13.48s WALL (   37088 calls)
     interpolate  :      0.07s CPU      0.08s WALL (      15 calls)
 
     Parallel routines
     fft_scatt_xy :      1.69s CPU      1.72s WALL (   39300 calls)
     fft_scatt_yz :      6.78s CPU      6.97s WALL (   39300 calls)
 
     PWSCF        :     56.13s CPU     58.20s WALL

 
   This run was terminated on:  11:34:10  14Oct2021            

=------------------------------------------------------------------------------=
   JOB DONE.
=------------------------------------------------------------------------------=
