
     Program PWSCF v.6.4 starts on  8Sep2021 at 11:30:42 

     This program is part of the open-source Quantum ESPRESSO suite
     for quantum simulation of materials; please cite
         "P. Giannozzi et al., J. Phys.:Condens. Matter 21 395502 (2009);
         "P. Giannozzi et al., J. Phys.:Condens. Matter 29 465901 (2017);
          URL http://www.quantum-espresso.org", 
     in publications or presentations arising from this work. More details at
     http://www.quantum-espresso.org/quote

     Parallel version (MPI), running on    40 processors

     MPI processes distributed on     1 nodes
     R & G space division:  proc/nbgrp/npool/nimage =      40
     Waiting for input...
     Reading input from standard input
Warning: card    &IONS ignored
Warning: card      ION_DYNAMICS = 'BFGS' ignored
Warning: card   / ignored
Warning: card    &CELL ignored
Warning: card      CELL_DYNAMICS = 'BFGS', ignored
Warning: card    / ignored

     Current dimensions of program PWSCF are:
     Max number of different atomic species (ntypx) = 10
     Max number of k-points (npk) =  40000
     Max angular momentum in pseudopotentials (lmaxx) =  3

     Subspace diagonalization in iterative solution of the eigenvalue problem:
     one sub-group per band group will be used
     scalapack distributed-memory algorithm (size of sub-group:  4*  4 procs)

 
     Parallelization info
     --------------------
     sticks:   dense  smooth     PW     G-vecs:    dense   smooth      PW
     Min          47      23      6                 5267     1856     276
     Max          48      24      7                 5276     1870     298
     Sum        1891     939    269               210899    74517   11445
 


     bravais-lattice index     =            0
     lattice parameter (alat)  =       6.0421  a.u.
     unit-cell volume          =    1827.8514 (a.u.)^3
     number of atoms/cell      =           12
     number of atomic types    =            2
     number of electrons       =        72.00
     number of Kohn-Sham states=           43
     kinetic-energy cutoff     =      45.0000  Ry
     charge density cutoff     =     360.0000  Ry
     convergence threshold     =      1.0E-06
     mixing beta               =       0.7000
     number of iterations used =            8  local-TF  mixing
     Exchange-correlation      = SLA PW GGX GGC ( 1  4  2  2 0 0)

     celldm(1)=   6.042128  celldm(2)=   0.000000  celldm(3)=   0.000000
     celldm(4)=   0.000000  celldm(5)=   0.000000  celldm(6)=   0.000000

     crystal axes: (cart. coord. in units of alat)
               a(1) = (   0.999999   0.000139  -0.001611 )  
               a(2) = (  -0.005762   1.803151   0.002827 )  
               a(3) = (  -0.006907  -0.627825   4.594601 )  

     reciprocal axes: (cart. coord. in units 2 pi/alat)
               b(1) = (  1.000004  0.003193  0.001939 )  
               b(2) = (  0.000045  0.554466  0.075765 )  
               b(3) = (  0.000351 -0.000340  0.217601 )  


     PseudoPot. # 1 for Mo read from file:
     ~/pseudo/Mo.pw91-n-van.UPF
     MD5 check sum: Not computed, couldn't open file
     Pseudo is Ultrasoft + core correction, Zval =  6.0
     Generated by new atomic code, or converted to UPF format
     Using radial grid of  965 points,  3 beta functions with: 
                l(1) =   1
                l(2) =   2
                l(3) =   2
     Q(r) pseudized with  8 coefficients,  rinner =    1.000   1.000   1.000
                                                       1.200   1.200

     PseudoPot. # 2 for S  read from file:
     ~/pseudo/S.pw91-van_ak.UPF
     MD5 check sum: Not computed, couldn't open file
     Pseudo is Ultrasoft, Zval =  6.0
     Generated by new atomic code, or converted to UPF format
     Using radial grid of  811 points,  6 beta functions with: 
                l(1) =   0
                l(2) =   0
                l(3) =   1
                l(4) =   1
                l(5) =   2
                l(6) =   2
     Q(r) pseudized with  8 coefficients,  rinner =    1.100   1.100   1.100
                                                       1.100   1.100

     atomic species   valence    mass     pseudopotential
        Mo             6.00    95.50000     Mo( 1.00)
        S              6.00    32.06500     S ( 1.00)

     No symmetry found



   Cartesian axes

     site n.     atom                  positions (alat units)
         1           Mo  tau(   1) = (   1.0064375   0.2676173   2.7690552  )
         2           Mo  tau(   2) = (   0.5014854   0.9850906   2.7993765  )
         3           Mo  tau(   3) = (   0.5167208   0.3919943   0.4996552  )
         4           Mo  tau(   4) = (   0.0161320   1.4774889   0.4737552  )
         5           S   tau(   5) = (   0.0208852   0.2020219   1.0344005  )
         6           S   tau(   6) = (   0.5052638   0.4600500   2.2359407  )
         7           S   tau(   7) = (   0.0030424   1.3905394   2.3548360  )
         8           S   tau(   8) = (   0.0035608   0.7956842   3.3350764  )
         9           S   tau(   9) = (   0.0232776   0.8002078   0.0598258  )
        10           S   tau(  10) = (   0.5048879  -0.1388834   3.2117189  )
        11           S   tau(  11) = (   0.5181634   1.6692037  -0.0614213  )
        12           S   tau(  12) = (   0.5189116   1.0714745   0.9156791  )

     number of k points=    16  Marzari-Vanderbilt smearing, width (Ry)=  0.0200
                       cart. coord. in units 2pi/alat
        k(    1) = (   0.0000000   0.0000000   0.0000000), wk =   0.0666667
        k(    2) = (  -0.0001753   0.0001700  -0.1088004), wk =   0.0666667
        k(    3) = (   0.0000149   0.1848220   0.0252549), wk =   0.1333333
        k(    4) = (  -0.0001604   0.1849920  -0.0835456), wk =   0.1333333
        k(    5) = (   0.2000008   0.0006385   0.0003879), wk =   0.1333333
        k(    6) = (   0.1998255   0.0008085  -0.1084125), wk =   0.1333333
        k(    7) = (   0.2000157   0.1854605   0.0256427), wk =   0.1333333
        k(    8) = (   0.1998404   0.1856305  -0.0831577), wk =   0.1333333
        k(    9) = (   0.1999859  -0.1841835  -0.0248670), wk =   0.1333333
        k(   10) = (   0.1998105  -0.1840135  -0.1336674), wk =   0.1333333
        k(   11) = (   0.4000016   0.0012770   0.0007758), wk =   0.1333333
        k(   12) = (   0.3998263   0.0014470  -0.1080246), wk =   0.1333333
        k(   13) = (   0.4000165   0.1860991   0.0260306), wk =   0.1333333
        k(   14) = (   0.3998412   0.1862691  -0.0827698), wk =   0.1333333
        k(   15) = (   0.3999867  -0.1835450  -0.0244791), wk =   0.1333333
        k(   16) = (   0.3998113  -0.1833750  -0.1332795), wk =   0.1333333

     Dense  grid:   210899 G-vectors     FFT dimensions: (  40,  72, 180)

     Smooth grid:    74517 G-vectors     FFT dimensions: (  25,  48, 120)

     Estimated max dynamical RAM per process >      27.32 MB

     Estimated total dynamical RAM >       1.07 GB

     Initial potential from superposition of free atoms

     starting charge   71.99369, renormalised to   72.00000
     Starting wfcs are   68 randomized atomic wfcs

     total cpu time spent up to now is        1.9 secs

     Self-consistent Calculation

     iteration #  1     ecut=    45.00 Ry     beta= 0.70
     Davidson diagonalization with overlap
     ethr =  1.00E-02,  avg # of iterations =  2.0

     total cpu time spent up to now is        3.7 secs

     total energy              =    -281.17987537 Ry
     Harris-Foulkes estimate   =    -282.13860382 Ry
     estimated scf accuracy    <       2.52110731 Ry

     iteration #  2     ecut=    45.00 Ry     beta= 0.70
     Davidson diagonalization with overlap
     ethr =  3.50E-03,  avg # of iterations =  2.1

     total cpu time spent up to now is        5.5 secs

     total energy              =    -281.65088240 Ry
     Harris-Foulkes estimate   =    -281.75509615 Ry
     estimated scf accuracy    <       0.52807790 Ry

     iteration #  3     ecut=    45.00 Ry     beta= 0.70
     Davidson diagonalization with overlap
     ethr =  7.33E-04,  avg # of iterations =  1.4

     total cpu time spent up to now is        6.9 secs

     total energy              =    -281.64528326 Ry
     Harris-Foulkes estimate   =    -281.68960538 Ry
     estimated scf accuracy    <       0.10652604 Ry

     iteration #  4     ecut=    45.00 Ry     beta= 0.70
     Davidson diagonalization with overlap
     ethr =  1.48E-04,  avg # of iterations =  3.4

     total cpu time spent up to now is        9.2 secs

     total energy              =    -281.67261228 Ry
     Harris-Foulkes estimate   =    -281.71467092 Ry
     estimated scf accuracy    <       0.19808959 Ry

     iteration #  5     ecut=    45.00 Ry     beta= 0.70
     Davidson diagonalization with overlap
     ethr =  1.48E-04,  avg # of iterations =  2.3

     total cpu time spent up to now is       10.9 secs

     total energy              =    -281.68490118 Ry
     Harris-Foulkes estimate   =    -281.68767792 Ry
     estimated scf accuracy    <       0.00993524 Ry

     iteration #  6     ecut=    45.00 Ry     beta= 0.70
     Davidson diagonalization with overlap
     ethr =  1.38E-05,  avg # of iterations =  4.7

     total cpu time spent up to now is       13.8 secs

     total energy              =    -281.68889327 Ry
     Harris-Foulkes estimate   =    -281.68934524 Ry
     estimated scf accuracy    <       0.00347635 Ry

     iteration #  7     ecut=    45.00 Ry     beta= 0.70
     Davidson diagonalization with overlap
     ethr =  4.83E-06,  avg # of iterations =  1.3

     total cpu time spent up to now is       15.2 secs

     total energy              =    -281.68886439 Ry
     Harris-Foulkes estimate   =    -281.68900687 Ry
     estimated scf accuracy    <       0.00146378 Ry

     iteration #  8     ecut=    45.00 Ry     beta= 0.70
     Davidson diagonalization with overlap
     ethr =  2.03E-06,  avg # of iterations =  1.0

     total cpu time spent up to now is       16.5 secs

     total energy              =    -281.68882781 Ry
     Harris-Foulkes estimate   =    -281.68891092 Ry
     estimated scf accuracy    <       0.00064185 Ry

     iteration #  9     ecut=    45.00 Ry     beta= 0.70
     Davidson diagonalization with overlap
     ethr =  8.91E-07,  avg # of iterations =  3.1

     total cpu time spent up to now is       18.3 secs

     total energy              =    -281.68887050 Ry
     Harris-Foulkes estimate   =    -281.68888955 Ry
     estimated scf accuracy    <       0.00007704 Ry

     iteration # 10     ecut=    45.00 Ry     beta= 0.70
     Davidson diagonalization with overlap
     ethr =  1.07E-07,  avg # of iterations =  4.6

     total cpu time spent up to now is       21.0 secs

     total energy              =    -281.68890853 Ry
     Harris-Foulkes estimate   =    -281.68891309 Ry
     estimated scf accuracy    <       0.00003389 Ry

     iteration # 11     ecut=    45.00 Ry     beta= 0.70
     Davidson diagonalization with overlap
     ethr =  4.71E-08,  avg # of iterations =  1.0

     total cpu time spent up to now is       22.3 secs

     total energy              =    -281.68890566 Ry
     Harris-Foulkes estimate   =    -281.68890948 Ry
     estimated scf accuracy    <       0.00001326 Ry

     iteration # 12     ecut=    45.00 Ry     beta= 0.70
     Davidson diagonalization with overlap
     ethr =  1.84E-08,  avg # of iterations =  3.0

     total cpu time spent up to now is       24.3 secs

     total energy              =    -281.68890850 Ry
     Harris-Foulkes estimate   =    -281.68890896 Ry
     estimated scf accuracy    <       0.00000251 Ry

     iteration # 13     ecut=    45.00 Ry     beta= 0.70
     Davidson diagonalization with overlap
     ethr =  3.48E-09,  avg # of iterations =  1.0

     total cpu time spent up to now is       25.6 secs

     End of self-consistent calculation

          k = 0.0000 0.0000 0.0000 (  9379 PWs)   bands (ev):

    -8.5510  -8.5197  -7.6154  -7.5614  -6.8703  -6.8624  -6.7491  -6.7263
    -0.4399  -0.4103   0.0249   0.2316   0.9077   0.9208   0.9506   1.1517
     2.1794   2.1875   2.2829   2.2981   2.6378   2.6853   3.0098   3.1655
     3.3520   3.7092   4.1230   4.2359   4.3903   4.4121   4.7728   5.1024
     5.1853   5.2082   5.3947   5.4067   5.8243   5.8343   6.0009   6.0236
     7.2487   7.2804   7.5507

          k =-0.0002 0.0002-0.1088 (  9372 PWs)   bands (ev):

    -8.5409  -8.5305  -7.5888  -7.5878  -6.8678  -6.8649  -6.7427  -6.7322
    -0.4291  -0.4216   0.1177   0.1206   0.9049   0.9105   1.0635   1.0657
     2.1814   2.1855   2.2830   2.2981   2.6537   2.6683   3.0741   3.0843
     3.5400   3.5420   4.1488   4.1552   4.3946   4.4078   4.9522   4.9597
     5.1990   5.2137   5.3954   5.4059   5.8261   5.8324   6.0084   6.0140
     7.2644   7.2659   7.5524

          k = 0.0000 0.1848 0.0253 (  9327 PWs)   bands (ev):

    -8.2227  -8.1914  -7.6446  -7.5973  -7.1899  -7.1822  -6.8776  -6.8708
     0.0251   0.0671   0.1532   0.2379   1.0069   1.0300   1.5047   1.5504
     2.0079   2.1101   2.3088   2.3150   2.4853   2.4955   3.0604   3.1160
     3.4630   3.4710   4.0349   4.2004   4.2254   4.2592   4.5592   4.6016
     4.7468   4.8410   4.8427   4.8919   5.7422   5.7567   5.7815   5.7904
     7.2969   7.4692   7.8785

          k =-0.0002 0.1850-0.0835 (  9318 PWs)   bands (ev):

    -8.2137  -8.2013  -7.6230  -7.6186  -7.1888  -7.1822  -6.8776  -6.8711
     0.0356   0.0780   0.1241   0.2473   0.9791   1.0538   1.4812   1.5665
     2.0567   2.0764   2.3091   2.3148   2.4850   2.4957   3.0673   3.1073
     3.4195   3.5201   4.0816   4.1517   4.2028   4.2250   4.5685   4.6131
     4.8189   4.8393   4.8439   4.8539   5.7394   5.7566   5.7772   5.7965
     7.3304   7.4179   7.8884

          k = 0.2000 0.0006 0.0004 (  9332 PWs)   bands (ev):

    -8.1293  -8.0987  -7.4360  -7.3902  -6.6993  -6.6823  -6.6383  -6.6316
     0.0215   0.0386   0.4093   0.5253   0.8351   0.9140   1.0035   1.1739
     1.8152   1.8567   2.1314   2.2204   2.2979   2.3117   2.7198   2.7394
     2.9546   3.0090   3.4806   3.4928   3.5668   3.6666   4.5618   4.6376
     4.7552   4.8596   4.9195   5.0765   5.7475   5.7732   6.5851   6.6506
     7.6575   7.6877   7.7633

          k = 0.1998 0.0008-0.1084 (  9335 PWs)   bands (ev):

    -8.1193  -8.1095  -7.4133  -7.4122  -6.6957  -6.6857  -6.6371  -6.6328
     0.0243   0.0350   0.4650   0.4728   0.8422   0.8509   1.1091   1.1204
     1.8278   1.8394   2.1739   2.1766   2.3083   2.3113   2.7205   2.7369
     2.9753   2.9854   3.4847   3.4882   3.6170   3.6206   4.5976   4.6032
     4.7717   4.7820   5.0217   5.0297   5.7588   5.7631   6.6174   6.6199
     7.6690   7.6755   7.7811

          k = 0.2000 0.1855 0.0256 (  9327 PWs)   bands (ev):

    -7.8406  -7.8119  -7.4106  -7.3702  -7.0652  -7.0525  -6.7041  -6.7008
     0.4634   0.4996   0.6089   0.6442   0.8269   0.9825   1.2305   1.2893
     1.6522   1.7354   1.9850   2.0015   2.1411   2.1632   2.5138   2.5292
     3.1603   3.1859   3.2690   3.2875   3.9313   3.9692   4.2844   4.3815
     4.6874   4.7093   4.7252   4.8354   5.9204   5.9294   6.4184   6.4237
     7.4934   7.5886   7.7337

          k = 0.1998 0.1856-0.0832 (  9345 PWs)   bands (ev):

    -7.8346  -7.8188  -7.3979  -7.3826  -7.0646  -7.0525  -6.7074  -6.6977
     0.4447   0.5307   0.6006   0.6341   0.8675   0.9391   1.2409   1.2846
     1.6657   1.7217   1.9844   2.0103   2.1391   2.1592   2.5203   2.5247
     3.1660   3.1854   3.2713   3.2795   3.9299   3.9708   4.2666   4.3942
     4.6887   4.7008   4.7673   4.8065   5.8838   5.9651   6.3910   6.4506
     7.5111   7.5723   7.7178

          k = 0.2000-0.1842-0.0249 (  9328 PWs)   bands (ev):

    -7.8434  -7.8146  -7.4123  -7.3715  -7.0623  -7.0490  -6.7014  -6.6985
     0.4581   0.4891   0.6009   0.6334   0.8217   0.9776   1.2212   1.2825
     1.6523   1.7351   1.9811   1.9937   2.1652   2.1837   2.5134   2.5273
     3.1650   3.1948   3.2708   3.2860   3.9441   3.9896   4.2889   4.3772
     4.6789   4.7054   4.7338   4.8446   5.9112   5.9172   6.4207   6.4330
     7.4931   7.5994   7.7212

          k = 0.1998-0.1840-0.1337 (  9336 PWs)   bands (ev):

    -7.8368  -7.8221  -7.3989  -7.3845  -7.0616  -7.0491  -6.7049  -6.6953
     0.4360   0.5251   0.5943   0.6217   0.8577   0.9361   1.2350   1.2756
     1.6653   1.7216   1.9793   2.0040   2.1616   2.1811   2.5184   2.5243
     3.1725   3.1926   3.2713   3.2797   3.9464   3.9881   4.2649   4.3970
     4.6805   4.7030   4.7656   4.8178   5.8747   5.9531   6.3954   6.4581
     7.5168   7.5677   7.7245

          k = 0.4000 0.0013 0.0008 (  9312 PWs)   bands (ev):

    -7.1898  -7.1671  -7.0837  -7.0624  -6.6579  -6.6469  -6.3720  -6.3634
     0.3735   0.3864   0.4032   0.4106   0.4421   0.4771   1.1448   1.1585
     1.4629   1.4727   1.7586   1.7724   1.9042   1.9224   2.1350   2.1834
     2.8112   2.8202   2.8429   2.8961   3.1454   3.1563   3.7368   3.7425
     4.3242   4.3809   4.4660   4.5488   6.9272   6.9371   7.1333   7.1539
     7.5098   7.5120   7.6058

          k = 0.3998 0.0014-0.1080 (  9286 PWs)   bands (ev):

    -7.1823  -7.1768  -7.0730  -7.0710  -6.6578  -6.6471  -6.3719  -6.3635
     0.3675   0.3756   0.4156   0.4235   0.4526   0.4577   1.1455   1.1579
     1.4681   1.4762   1.7566   1.7690   1.9008   1.9042   2.1662   2.1731
     2.7978   2.8121   2.8729   2.8889   3.1456   3.1521   3.7372   3.7429
     4.3420   4.3477   4.5116   4.5186   6.9302   6.9339   7.1434   7.1477
     7.4971   7.5002   7.6190

          k = 0.4000 0.1861 0.0260 (  9271 PWs)   bands (ev):

    -7.1736  -7.1675  -7.0495  -7.0422  -6.7000  -6.6876  -6.3608  -6.3543
    -0.2531  -0.2430   0.1551   0.1805   0.5551   0.5761   1.1807   1.2020
     1.5459   1.5894   1.7126   1.7998   1.9886   2.0008   2.4383   2.4755
     2.8639   2.8797   3.1578   3.1623   3.6162   3.6433   3.8276   3.8577
     4.2029   4.2184   4.4158   4.4491   6.8575   6.8629   7.1314   7.1401
     7.6259   7.6851   7.9233

          k = 0.3998 0.1863-0.0828 (  9281 PWs)   bands (ev):

    -7.1796  -7.1605  -7.0516  -7.0411  -6.7004  -6.6871  -6.3620  -6.3531
    -0.2566  -0.2396   0.1623   0.1736   0.5424   0.5911   1.1557   1.2223
     1.5466   1.5925   1.7387   1.7696   1.9889   2.0010   2.4503   2.4662
     2.8711   2.8725   3.1546   3.1653   3.6240   3.6326   3.8340   3.8537
     4.2027   4.2185   4.4272   4.4385   6.8454   6.8767   7.1334   7.1371
     7.6013   7.7133   7.9196

          k = 0.4000-0.1835-0.0245 (  9274 PWs)   bands (ev):

    -7.1760  -7.1710  -7.0471  -7.0403  -6.7066  -6.6925  -6.3526  -6.3466
    -0.2547  -0.2457   0.1521   0.1770   0.5566   0.5767   1.1713   1.1971
     1.5299   1.5748   1.7134   1.8054   1.9774   1.9931   2.4466   2.4804
     2.8833   2.8988   3.1616   3.1651   3.6424   3.6681   3.8089   3.8352
     4.2035   4.2159   4.4276   4.4558   6.8600   6.8625   7.1263   7.1311
     7.6228   7.6881   7.9283

          k = 0.3998-0.1834-0.1333 (  9301 PWs)   bands (ev):

    -7.1826  -7.1634  -7.0498  -7.0386  -6.7069  -6.6921  -6.3537  -6.3456
    -0.2585  -0.2421   0.1589   0.1705   0.5436   0.5922   1.1486   1.2143
     1.5334   1.5752   1.7413   1.7732   1.9780   1.9937   2.4599   2.4695
     2.8896   2.8922   3.1578   3.1687   3.6503   3.6569   3.8161   3.8309
     4.2012   4.2188   4.4373   4.4463   6.8461   6.8781   7.1266   7.1299
     7.6004   7.7151   7.9252

     the Fermi energy is     5.4396 ev

!    total energy              =    -281.68890817 Ry
     Harris-Foulkes estimate   =    -281.68890864 Ry
     estimated scf accuracy    <       0.00000052 Ry

     The total energy is the sum of the following terms:

     one-electron contribution =     -71.30184586 Ry
     hartree contribution      =      73.97302326 Ry
     xc contribution           =    -111.19748018 Ry
     ewald contribution        =    -173.16661698 Ry
     smearing contrib. (-TS)   =       0.00401158 Ry

     convergence has been achieved in  13 iterations

     Forces acting on atoms (cartesian axes, Ry/au):

     atom    1 type  1   force =    -0.00103358   -0.00187247   -0.00876816
     atom    2 type  1   force =     0.00152281    0.00253093    0.00739487
     atom    3 type  1   force =     0.00443921    0.00235292    0.00903929
     atom    4 type  1   force =     0.00224529   -0.00031847   -0.00769568
     atom    5 type  2   force =    -0.00080598   -0.00863140   -0.00226582
     atom    6 type  2   force =    -0.00050817    0.00704892    0.00263802
     atom    7 type  2   force =    -0.00072444   -0.00063168    0.00827977
     atom    8 type  2   force =    -0.00051433   -0.00939905   -0.00412431
     atom    9 type  2   force =    -0.00302783   -0.00260869    0.00410700
     atom   10 type  2   force =     0.00096103    0.00176267   -0.00533579
     atom   11 type  2   force =    -0.00187766    0.00824278    0.00263490
     atom   12 type  2   force =    -0.00067635    0.00152353   -0.00590409

     Total force =     0.028458     Total SCF correction =     0.001514
 
     init_run     :      1.11s CPU      1.17s WALL (       1 calls)
     electrons    :     23.11s CPU     23.66s WALL (       1 calls)
     forces       :      0.55s CPU      0.55s WALL (       1 calls)

     Called by init_run:
     wfcinit      :      0.63s CPU      0.66s WALL (       1 calls)
     potinit      :      0.14s CPU      0.14s WALL (       1 calls)
     hinit0       :      0.20s CPU      0.21s WALL (       1 calls)

     Called by electrons:
     c_bands      :     18.75s CPU     19.19s WALL (      13 calls)
     sum_band     :      3.12s CPU      3.22s WALL (      13 calls)
     v_of_rho     :      0.21s CPU      0.22s WALL (      14 calls)
     newd         :      0.86s CPU      0.88s WALL (      14 calls)
     mix_rho      :      0.18s CPU      0.19s WALL (      13 calls)

     Called by c_bands:
     init_us_2    :      0.27s CPU      0.28s WALL (     448 calls)
     cegterg      :     17.43s CPU     17.86s WALL (     208 calls)

     Called by sum_band:
     sum_band:bec :      0.02s CPU      0.02s WALL (     208 calls)
     addusdens    :      1.17s CPU      1.20s WALL (      13 calls)

     Called by *egterg:
     h_psi        :      8.24s CPU      8.59s WALL (     719 calls)
     s_psi        :      0.73s CPU      0.74s WALL (     719 calls)
     g_psi        :      0.04s CPU      0.04s WALL (     495 calls)
     cdiaghg      :      6.48s CPU      6.55s WALL (     703 calls)

     Called by h_psi:
     h_psi:pot    :      8.20s CPU      8.55s WALL (     719 calls)
     h_psi:calbec :      1.06s CPU      1.09s WALL (     719 calls)
     vloc_psi     :      6.40s CPU      6.70s WALL (     719 calls)
     add_vuspsi   :      0.74s CPU      0.75s WALL (     719 calls)

     General routines
     calbec       :      1.57s CPU      1.61s WALL (     991 calls)
     fft          :      0.18s CPU      0.19s WALL (     191 calls)
     ffts         :      0.08s CPU      0.09s WALL (     337 calls)
     fftw         :      7.26s CPU      7.61s WALL (   55128 calls)
     interpolate  :      0.02s CPU      0.02s WALL (      14 calls)
 
     Parallel routines
     fft_scatt_xy :      0.52s CPU      0.54s WALL (   55656 calls)
     fft_scatt_yz :      4.77s CPU      5.00s WALL (   55656 calls)
 
     PWSCF        :     25.50s CPU     26.21s WALL

 
   This run was terminated on:  11:31: 8   8Sep2021            

=------------------------------------------------------------------------------=
   JOB DONE.
=------------------------------------------------------------------------------=
