
     Program PWSCF v.6.4 starts on  8Sep2021 at 11:45:28 

     This program is part of the open-source Quantum ESPRESSO suite
     for quantum simulation of materials; please cite
         "P. Giannozzi et al., J. Phys.:Condens. Matter 21 395502 (2009);
         "P. Giannozzi et al., J. Phys.:Condens. Matter 29 465901 (2017);
          URL http://www.quantum-espresso.org", 
     in publications or presentations arising from this work. More details at
     http://www.quantum-espresso.org/quote

     Parallel version (MPI), running on    40 processors

     MPI processes distributed on     1 nodes
     R & G space division:  proc/nbgrp/npool/nimage =      40
     Waiting for input...
     Reading input from standard input
Warning: card    &IONS ignored
Warning: card      ION_DYNAMICS = 'BFGS' ignored
Warning: card   / ignored
Warning: card    &CELL ignored
Warning: card      CELL_DYNAMICS = 'BFGS', ignored
Warning: card    / ignored

     Current dimensions of program PWSCF are:
     Max number of different atomic species (ntypx) = 10
     Max number of k-points (npk) =  40000
     Max angular momentum in pseudopotentials (lmaxx) =  3

     Subspace diagonalization in iterative solution of the eigenvalue problem:
     one sub-group per band group will be used
     scalapack distributed-memory algorithm (size of sub-group:  4*  4 procs)

 
     Parallelization info
     --------------------
     sticks:   dense  smooth     PW     G-vecs:    dense   smooth      PW
     Min          47      23      6                 9842     3467     532
     Max          48      24      7                 9856     3499     578
     Sum        1895     943    275               393889   139333   22363
 


     bravais-lattice index     =            0
     lattice parameter (alat)  =      12.5014  a.u.
     unit-cell volume          =    3415.3406 (a.u.)^3
     number of atoms/cell      =           24
     number of atomic types    =            2
     number of electrons       =       144.00
     number of Kohn-Sham states=           86
     kinetic-energy cutoff     =      45.0000  Ry
     charge density cutoff     =     360.0000  Ry
     convergence threshold     =      1.0E-06
     mixing beta               =       0.7000
     number of iterations used =            8  local-TF  mixing
     Exchange-correlation      = SLA PW GGX GGC ( 1  4  2  2 0 0)

     celldm(1)=  12.501368  celldm(2)=   0.000000  celldm(3)=   0.000000
     celldm(4)=   0.000000  celldm(5)=   0.000000  celldm(6)=   0.000000

     crystal axes: (cart. coord. in units of alat)
               a(1) = (   0.999747   0.022482   0.000440 )  
               a(2) = (  -0.242154   0.417188  -0.000426 )  
               a(3) = (  -0.314631   0.411154   4.136758 )  

     reciprocal axes: (cart. coord. in units 2 pi/alat)
               b(1) = (  0.987357  0.573124  0.018133 )  
               b(2) = ( -0.053098  2.365939 -0.239190 )  
               b(3) = ( -0.000110  0.000183  0.241709 )  


     PseudoPot. # 1 for Mo read from file:
     ~/pseudo/Mo.pw91-n-van.UPF
     MD5 check sum: Not computed, couldn't open file
     Pseudo is Ultrasoft + core correction, Zval =  6.0
     Generated by new atomic code, or converted to UPF format
     Using radial grid of  965 points,  3 beta functions with: 
                l(1) =   1
                l(2) =   2
                l(3) =   2
     Q(r) pseudized with  8 coefficients,  rinner =    1.000   1.000   1.000
                                                       1.200   1.200

     PseudoPot. # 2 for S  read from file:
     ~/pseudo/S.pw91-van_ak.UPF
     MD5 check sum: Not computed, couldn't open file
     Pseudo is Ultrasoft, Zval =  6.0
     Generated by new atomic code, or converted to UPF format
     Using radial grid of  811 points,  6 beta functions with: 
                l(1) =   0
                l(2) =   0
                l(3) =   1
                l(4) =   1
                l(5) =   2
                l(6) =   2
     Q(r) pseudized with  8 coefficients,  rinner =    1.100   1.100   1.100
                                                       1.100   1.100

     atomic species   valence    mass     pseudopotential
        Mo             6.00    95.50000     Mo( 1.00)
        S              6.00    32.06500     S ( 1.00)

     No symmetry found



   Cartesian axes

     site n.     atom                  positions (alat units)
         1           Mo  tau(   1) = (   0.0893000   0.3290299   1.4899742  )
         2           Mo  tau(   2) = (  -0.3596708   0.4750372   3.6852515  )
         3           Mo  tau(   3) = (   0.5129435   0.2960492   1.5091122  )
         4           Mo  tau(   4) = (   0.2166528   0.5291960   3.6591375  )
         5           Mo  tau(   5) = (  -0.1011792  -0.1162892   0.5453300  )
         6           Mo  tau(   6) = (  -0.2500120   0.1321882   2.5621281  )
         7           Mo  tau(   7) = (   0.4781982  -0.0605133   0.5212960  )
         8           Mo  tau(   8) = (   0.1748825   0.0971695   2.5838097  )
         9           S   tau(   9) = (   0.3046380   0.4549499   1.7662608  )
        10           S   tau(  10) = (  -0.0739519   0.6395523   3.8726126  )
        11           S   tau(  11) = (   0.8000712   0.4614420   1.7032271  )
        12           S   tau(  12) = (   0.4239594   0.6523239   3.9383404  )
        13           S   tau(  13) = (  -0.0528272   0.1895911   0.3327690  )
        14           S   tau(  14) = (  -0.2813633   0.3917877   2.3071072  )
        15           S   tau(  15) = (   0.4444842   0.2008851   0.2672360  )
        16           S   tau(  16) = (   0.2197222   0.4069905   2.3657714  )
        17           S   tau(  17) = (  -0.0547191   0.4677643   0.7319451  )
        18           S   tau(  18) = (  -0.2767618   0.6714962   2.8382408  )
        19           S   tau(  19) = (   0.4466248   0.4793838   0.7992334  )
        20           S   tau(  20) = (   0.2200435   0.6798561   2.7785280  )
        21           S   tau(  21) = (   0.3007003   0.1716634   1.2336951  )
        22           S   tau(  22) = (  -0.0649821   0.3667493   3.4739690  )
        23           S   tau(  23) = (   0.8027824   0.1885387   1.2988245  )
        24           S   tau(  24) = (   0.4329346   0.3743076   3.4054446  )

     number of k points=     8  Marzari-Vanderbilt smearing, width (Ry)=  0.0200
                       cart. coord. in units 2pi/alat
        k(    1) = (   0.0000000   0.0000000   0.0000000), wk =   0.1333333
        k(    2) = (  -0.0106196   0.4731877  -0.0478380), wk =   0.2666667
        k(    3) = (  -0.0212393   0.9463754  -0.0956760), wk =   0.2666667
        k(    4) = (   0.3291190   0.1910415   0.0060442), wk =   0.2666667
        k(    5) = (   0.3184993   0.6642292  -0.0417938), wk =   0.2666667
        k(    6) = (   0.3078797   1.1374169  -0.0896318), wk =   0.2666667
        k(    7) = (   0.3503583  -0.7553339   0.1017203), wk =   0.2666667
        k(    8) = (   0.3397386  -0.2821462   0.0538822), wk =   0.2666667

     Dense  grid:   393889 G-vectors     FFT dimensions: (  75,  40, 320)

     Smooth grid:   139333 G-vectors     FFT dimensions: (  54,  25, 225)

     Estimated max dynamical RAM per process >      58.40 MB

     Estimated total dynamical RAM >       2.28 GB

     Initial potential from superposition of free atoms

     starting charge  143.98738, renormalised to  144.00000
     Starting wfcs are  136 randomized atomic wfcs

     total cpu time spent up to now is        3.1 secs

     Self-consistent Calculation

     iteration #  1     ecut=    45.00 Ry     beta= 0.70
     Davidson diagonalization with overlap
     ethr =  1.00E-02,  avg # of iterations =  2.0

     total cpu time spent up to now is        6.8 secs

     total energy              =    -562.37123821 Ry
     Harris-Foulkes estimate   =    -564.26989146 Ry
     estimated scf accuracy    <       4.97345343 Ry

     iteration #  2     ecut=    45.00 Ry     beta= 0.70
     Davidson diagonalization with overlap
     ethr =  3.45E-03,  avg # of iterations =  2.4

     total cpu time spent up to now is       10.3 secs

     total energy              =    -563.29360443 Ry
     Harris-Foulkes estimate   =    -563.50588297 Ry
     estimated scf accuracy    <       1.07711368 Ry

     iteration #  3     ecut=    45.00 Ry     beta= 0.70
     Davidson diagonalization with overlap
     ethr =  7.48E-04,  avg # of iterations =  1.2

     total cpu time spent up to now is       13.1 secs

     total energy              =    -563.30513129 Ry
     Harris-Foulkes estimate   =    -563.37524982 Ry
     estimated scf accuracy    <       0.18667074 Ry

     iteration #  4     ecut=    45.00 Ry     beta= 0.70
     Davidson diagonalization with overlap
     ethr =  1.30E-04,  avg # of iterations =  4.0

     total cpu time spent up to now is       17.9 secs

     total energy              =    -563.36273500 Ry
     Harris-Foulkes estimate   =    -563.40825002 Ry
     estimated scf accuracy    <       0.24204535 Ry

     iteration #  5     ecut=    45.00 Ry     beta= 0.70
     Davidson diagonalization with overlap
     ethr =  1.30E-04,  avg # of iterations =  2.1

     total cpu time spent up to now is       20.9 secs

     total energy              =    -563.36855764 Ry
     Harris-Foulkes estimate   =    -563.37548183 Ry
     estimated scf accuracy    <       0.03781394 Ry

     iteration #  6     ecut=    45.00 Ry     beta= 0.70
     Davidson diagonalization with overlap
     ethr =  2.63E-05,  avg # of iterations =  4.0

     total cpu time spent up to now is       24.9 secs

     total energy              =    -563.37548819 Ry
     Harris-Foulkes estimate   =    -563.37555824 Ry
     estimated scf accuracy    <       0.00083236 Ry

     iteration #  7     ecut=    45.00 Ry     beta= 0.70
     Davidson diagonalization with overlap
     ethr =  5.78E-07,  avg # of iterations = 11.8

     total cpu time spent up to now is       33.4 secs

     total energy              =    -563.37596043 Ry
     Harris-Foulkes estimate   =    -563.37594077 Ry
     estimated scf accuracy    <       0.00068278 Ry

     iteration #  8     ecut=    45.00 Ry     beta= 0.70
     Davidson diagonalization with overlap
     ethr =  4.74E-07,  avg # of iterations =  1.4

     total cpu time spent up to now is       36.2 secs

     total energy              =    -563.37589972 Ry
     Harris-Foulkes estimate   =    -563.37599221 Ry
     estimated scf accuracy    <       0.00086445 Ry

     iteration #  9     ecut=    45.00 Ry     beta= 0.70
     Davidson diagonalization with overlap
     ethr =  4.74E-07,  avg # of iterations =  1.0

     total cpu time spent up to now is       38.9 secs

     total energy              =    -563.37590550 Ry
     Harris-Foulkes estimate   =    -563.37591836 Ry
     estimated scf accuracy    <       0.00045844 Ry

     iteration # 10     ecut=    45.00 Ry     beta= 0.70
     Davidson diagonalization with overlap
     ethr =  3.18E-07,  avg # of iterations =  1.0

     total cpu time spent up to now is       41.6 secs

     total energy              =    -563.37588818 Ry
     Harris-Foulkes estimate   =    -563.37590972 Ry
     estimated scf accuracy    <       0.00038760 Ry

     iteration # 11     ecut=    45.00 Ry     beta= 0.70
     Davidson diagonalization with overlap
     ethr =  2.69E-07,  avg # of iterations =  1.0

     total cpu time spent up to now is       44.3 secs

     total energy              =    -563.37584387 Ry
     Harris-Foulkes estimate   =    -563.37589158 Ry
     estimated scf accuracy    <       0.00025876 Ry

     iteration # 12     ecut=    45.00 Ry     beta= 0.70
     Davidson diagonalization with overlap
     ethr =  1.80E-07,  avg # of iterations =  2.0

     total cpu time spent up to now is       47.3 secs

     total energy              =    -563.37585741 Ry
     Harris-Foulkes estimate   =    -563.37586263 Ry
     estimated scf accuracy    <       0.00002392 Ry

     iteration # 13     ecut=    45.00 Ry     beta= 0.70
     Davidson diagonalization with overlap
     ethr =  1.66E-08,  avg # of iterations =  7.0

     total cpu time spent up to now is       53.5 secs

     total energy              =    -563.37586739 Ry
     Harris-Foulkes estimate   =    -563.37586808 Ry
     estimated scf accuracy    <       0.00000800 Ry

     iteration # 14     ecut=    45.00 Ry     beta= 0.70
     Davidson diagonalization with overlap
     ethr =  5.56E-09,  avg # of iterations =  1.1

     total cpu time spent up to now is       56.2 secs

     total energy              =    -563.37586624 Ry
     Harris-Foulkes estimate   =    -563.37586757 Ry
     estimated scf accuracy    <       0.00000443 Ry

     iteration # 15     ecut=    45.00 Ry     beta= 0.70
     Davidson diagonalization with overlap
     ethr =  3.08E-09,  avg # of iterations =  3.0

     total cpu time spent up to now is       60.0 secs

     total energy              =    -563.37586719 Ry
     Harris-Foulkes estimate   =    -563.37586733 Ry
     estimated scf accuracy    <       0.00000139 Ry

     iteration # 16     ecut=    45.00 Ry     beta= 0.70
     Davidson diagonalization with overlap
     ethr =  9.63E-10,  avg # of iterations =  1.0

     total cpu time spent up to now is       62.7 secs

     End of self-consistent calculation

          k = 0.0000 0.0000 0.0000 ( 17519 PWs)   bands (ev):

    -7.8803  -7.7849  -7.7355  -7.6651  -6.9040  -6.7905  -6.7366  -6.7173
    -6.1636  -6.1354  -6.0915  -6.0542  -6.0338  -6.0246  -6.0111  -5.9168
     0.2517   0.3370   0.3938   0.4385   0.6427   0.9204   0.9702   1.1708
     1.5489   1.6247   1.7342   1.8050   1.8314   1.9017   1.9204   1.9486
     2.9049   2.9608   2.9852   3.0147   3.0743   3.0772   3.0852   3.1698
     3.2472   3.3555   3.4215   3.4710   3.5998   3.6528   3.7316   3.8661
     3.9411   4.3042   4.3524   4.6103   4.8924   4.9720   5.0141   5.1325
     5.2209   5.2729   5.3513   5.3883   5.4703   5.6805   5.7118   5.8032
     5.9182   5.9542   6.0138   6.0514   6.1041   6.1047   6.1744   6.1847
     6.5906   6.6090   6.7046   6.7440   6.7629   6.8016   6.8388   6.8615
     8.0318   8.1271   8.1896   8.2151   8.2296   8.2425

          k =-0.0106 0.4732-0.0478 ( 17422 PWs)   bands (ev):

    -7.3451  -7.2526  -7.1999  -7.1374  -6.6994  -6.6040  -6.5416  -6.5286
    -6.2242  -6.1508  -6.1136  -6.0189  -5.9393  -5.9131  -5.8323  -5.8090
     0.9217   0.9680   1.0330   1.0945   1.1275   1.2329   1.3420   1.3769
     1.5021   1.5747   1.6903   1.7354   1.8932   2.0022   2.0598   2.0871
     2.4207   2.5684   2.6849   2.7059   2.7664   2.8582   2.9099   2.9376
     2.9640   3.0160   3.0623   3.0790   3.3396   3.4278   3.4712   3.5230
     3.6972   3.7535   3.7975   3.8250   3.8419   3.9009   3.9249   3.9480
     4.7349   4.8108   4.8914   4.9319   5.0244   5.1699   5.2972   5.3586
     5.3986   5.4525   5.5301   5.5522   5.5930   5.7486   5.7995   5.9405
     6.6163   6.6484   6.7170   6.7604   7.2596   7.3348   7.3898   7.4168
     8.2962   8.3274   8.3631   8.4042   8.4934   8.5454

          k =-0.0212 0.9464-0.0957 ( 17360 PWs)   bands (ev):

    -6.4712  -6.4117  -6.3829  -6.3321  -6.3072  -6.3015  -6.2536  -6.2222
    -5.9866  -5.9304  -5.8694  -5.7881  -5.6749  -5.6266  -5.5616  -5.5121
     0.3809   0.4483   0.5019   0.5728   0.7116   0.7673   0.8286   0.8861
     1.2867   1.3957   1.4531   1.5124   1.7918   1.9509   2.0456   2.0596
     2.1995   2.3399   2.3835   2.4217   2.4731   2.5095   2.6102   2.6298
     2.6717   2.7150   2.7324   2.8368   3.1361   3.2432   3.2852   3.3563
     3.4709   3.5375   3.5772   3.6298   3.9634   4.0251   4.1242   4.1821
     4.2405   4.2944   4.3932   4.4270   4.4323   4.5924   4.6479   4.7030
     5.1017   5.1716   5.1893   5.2436   5.3120   5.3662   5.4001   5.4450
     7.5643   7.5917   7.6405   7.6731   7.8400   7.8576   7.9229   7.9476
     8.2999   8.4155   8.4440   8.5138   8.6912   8.7548

          k = 0.3291 0.1910 0.0060 ( 17438 PWs)   bands (ev):

    -7.5478  -7.4548  -7.4015  -7.3376  -6.9029  -6.8532  -6.7658  -6.7460
    -6.6066  -6.5130  -6.4840  -6.4053  -6.1325  -6.0759  -6.0033  -5.9903
     0.5509   0.6860   0.8027   0.8740   0.9275   0.9831   1.0723   1.1190
     1.6434   1.7907   1.8625   1.8952   2.0993   2.2441   2.3102   2.3850
     2.6928   2.8253   2.9108   2.9229   2.9817   3.0757   3.1466   3.1732
     3.2161   3.2650   3.3724   3.3912   3.7263   3.7940   3.8703   3.9545
     4.0608   4.2084   4.2879   4.3732   4.7210   4.8087   4.9515   5.0075
     5.0128   5.0305   5.0992   5.1953   5.2713   5.3362   5.4033   5.4594
     5.5118   5.5567   5.5632   5.5801   5.6327   5.6593   5.7612   5.9061
     6.4288   6.4725   6.4997   6.5094   6.5627   6.5832   6.6811   6.7087
     8.1733   8.2619   8.3103   8.3936   8.6095   8.6236

          k = 0.3185 0.6642-0.0418 ( 17438 PWs)   bands (ev):

    -6.9316  -6.8399  -6.7837  -6.7703  -6.7397  -6.7112  -6.6470  -6.6042
    -6.5778  -6.5093  -6.4759  -6.4201  -5.9897  -5.9562  -5.8740  -5.8586
     1.0552   1.2131   1.3176   1.3633   1.5161   1.6419   1.6695   1.7156
     1.7517   1.8055   1.8372   1.8957   1.9707   2.0144   2.0623   2.0903
     2.1047   2.1304   2.1816   2.2158   2.5565   2.5812   2.6766   2.7141
     2.8711   2.9608   3.0284   3.0552   3.1545   3.1914   3.2745   3.3042
     3.9216   3.9424   3.9916   4.0741   4.2775   4.3320   4.3950   4.4321
     4.4537   4.4853   4.5206   4.5396   5.0303   5.1655   5.2574   5.3007
     5.3583   5.4279   5.4999   5.5310   5.5896   5.6236   5.6611   5.6833
     6.5756   6.6153   6.6825   6.7363   6.9966   7.0464   7.0846   7.1140
     8.1896   8.2416   8.2844   8.3488   8.5718   8.6060

          k = 0.3079 1.1374-0.0896 ( 17345 PWs)   bands (ev):

    -6.5036  -6.4193  -6.3699  -6.3244  -6.3163  -6.2763  -6.2040  -6.1899
    -6.0189  -5.9721  -5.9053  -5.8324  -5.6554  -5.6155  -5.5500  -5.4894
     0.5089   0.5639   0.6358   0.6944   0.9400   0.9845   1.0574   1.1303
     1.2358   1.3012   1.3672   1.4301   1.8405   1.9513   2.0256   2.0577
     2.1531   2.2276   2.2844   2.3541   2.4384   2.5253   2.5784   2.6258
     2.6913   2.7518   2.8239   2.8620   3.0046   3.0471   3.1324   3.1789
     3.4818   3.5616   3.5997   3.6485   3.7465   3.8580   3.9186   3.9615
     4.2673   4.3798   4.4294   4.4773   4.5084   4.6644   4.6903   4.8101
     4.8754   4.9922   5.0370   5.0860   5.1313   5.2244   5.2644   5.3040
     7.6282   7.6764   7.7303   7.7586   7.9313   7.9504   8.0191   8.0281
     8.2845   8.3671   8.4561   8.4909   8.5622   8.6503

          k = 0.3504-0.7553 0.1017 ( 17356 PWs)   bands (ev):

    -6.5019  -6.4267  -6.3691  -6.3267  -6.3173  -6.2817  -6.2172  -6.2049
    -6.0062  -5.9521  -5.8969  -5.8068  -5.6612  -5.6288  -5.5647  -5.5019
     0.8870   0.9855   1.0291   1.0590   1.1013   1.1491   1.1878   1.2551
     1.2839   1.3131   1.3672   1.3926   1.8299   1.8454   1.9085   2.0152
     2.0769   2.1383   2.2090   2.2770   2.4060   2.5018   2.5460   2.5663
     2.6441   2.6763   2.7341   2.7753   2.9265   3.0198   3.0884   3.1254
     3.4451   3.5005   3.5494   3.5864   3.6106   3.6232   3.6524   3.6699
     3.9289   4.0291   4.0832   4.1200   4.5205   4.5619   4.6616   4.7462
     4.9414   5.0290   5.0922   5.1696   5.2304   5.2750   5.3444   5.3979
     7.6913   7.7210   7.7964   7.8112   7.9198   7.9460   8.0090   8.0213
     8.2113   8.3090   8.3670   8.4082   8.4232   8.4514

          k = 0.3397-0.2821 0.0539 ( 17424 PWs)   bands (ev):

    -7.4047  -7.3100  -7.2602  -7.1928  -6.7118  -6.6084  -6.5512  -6.5363
    -6.1371  -6.0778  -6.0279  -5.9427  -5.9197  -5.9030  -5.8223  -5.7919
     0.8381   0.8728   0.9461   1.0128   1.0334   1.2016   1.3188   1.3603
     1.5178   1.5949   1.6570   1.7719   1.8351   1.9794   2.0141   2.0495
     2.4341   2.5549   2.6399   2.6982   2.7678   2.9014   2.9531   2.9955
     3.0454   3.0645   3.0974   3.1107   3.4256   3.4685   3.5070   3.6044
     3.6302   3.7199   3.8012   3.8422   3.8737   3.8914   3.9868   4.0035
     4.6172   4.7003   4.7829   4.8208   5.1415   5.2654   5.3373   5.3709
     5.4196   5.5034   5.5374   5.5805   5.6772   5.8070   5.9057   5.9903
     6.5604   6.6152   6.6624   6.7019   7.2799   7.3594   7.4023   7.4417
     8.3459   8.3791   8.4100   8.4449   8.5475   8.5833

     the Fermi energy is     6.1922 ev

!    total energy              =    -563.37586658 Ry
     Harris-Foulkes estimate   =    -563.37586723 Ry
     estimated scf accuracy    <       0.00000071 Ry

     The total energy is the sum of the following terms:

     one-electron contribution =     -95.91568950 Ry
     hartree contribution      =     128.79253472 Ry
     xc contribution           =    -222.51708153 Ry
     ewald contribution        =    -373.74661262 Ry
     smearing contrib. (-TS)   =       0.01098237 Ry

     convergence has been achieved in  16 iterations

     Forces acting on atoms (cartesian axes, Ry/au):

     atom    1 type  1   force =     0.00433367    0.00318408   -0.01030020
     atom    2 type  1   force =    -0.00379483   -0.00241829    0.00363767
     atom    3 type  1   force =    -0.00188278    0.00053567    0.01767628
     atom    4 type  1   force =     0.01020227    0.00650587   -0.00320046
     atom    5 type  1   force =     0.00604353    0.00104596    0.00231543
     atom    6 type  1   force =     0.00247643   -0.00088829   -0.00367297
     atom    7 type  1   force =    -0.00658807   -0.00154075   -0.00343227
     atom    8 type  1   force =    -0.00157700    0.00000487    0.00252083
     atom    9 type  2   force =    -0.00075857   -0.00080368   -0.00707645
     atom   10 type  2   force =    -0.00129177    0.00091210    0.00461623
     atom   11 type  2   force =    -0.00261202    0.00059385    0.00149735
     atom   12 type  2   force =     0.00867317    0.00225521   -0.00096376
     atom   13 type  2   force =     0.00466320    0.00176567   -0.00431204
     atom   14 type  2   force =    -0.00089287   -0.00097311    0.00055859
     atom   15 type  2   force =     0.00235931   -0.00232567   -0.00032651
     atom   16 type  2   force =     0.00580754   -0.00133740    0.00908353
     atom   17 type  2   force =    -0.00617802   -0.00255797    0.00238403
     atom   18 type  2   force =    -0.00156215    0.00200985   -0.00108601
     atom   19 type  2   force =    -0.00066576    0.00137188   -0.00253847
     atom   20 type  2   force =    -0.00441667    0.00100466   -0.00635089
     atom   21 type  2   force =    -0.00276745   -0.00019258    0.00735476
     atom   22 type  2   force =    -0.00958888   -0.00661388   -0.00952629
     atom   23 type  2   force =     0.00462253   -0.00189671   -0.00047130
     atom   24 type  2   force =    -0.00460482    0.00035867    0.00161294

     Total force =     0.039707     Total SCF correction =     0.001989
 
     init_run     :      2.27s CPU      2.37s WALL (       1 calls)
     electrons    :     58.39s CPU     59.55s WALL (       1 calls)
     forces       :      1.28s CPU      1.30s WALL (       1 calls)

     Called by init_run:
     wfcinit      :      1.33s CPU      1.37s WALL (       1 calls)
     potinit      :      0.25s CPU      0.26s WALL (       1 calls)
     hinit0       :      0.37s CPU      0.39s WALL (       1 calls)

     Called by electrons:
     c_bands      :     46.02s CPU     46.93s WALL (      16 calls)
     sum_band     :      9.07s CPU      9.29s WALL (      16 calls)
     v_of_rho     :      0.57s CPU      0.59s WALL (      17 calls)
     newd         :      2.27s CPU      2.30s WALL (      17 calls)
     mix_rho      :      0.50s CPU      0.50s WALL (      16 calls)

     Called by c_bands:
     init_us_2    :      1.32s CPU      1.33s WALL (     272 calls)
     cegterg      :     42.53s CPU     43.32s WALL (     128 calls)

     Called by sum_band:
     sum_band:bec :      0.11s CPU      0.11s WALL (     128 calls)
     addusdens    :      3.73s CPU      3.79s WALL (      16 calls)

     Called by *egterg:
     h_psi        :     20.65s CPU     21.23s WALL (     504 calls)
     s_psi        :      3.26s CPU      3.27s WALL (     504 calls)
     g_psi        :      0.07s CPU      0.07s WALL (     368 calls)
     cdiaghg      :     12.50s CPU     12.69s WALL (     496 calls)

     Called by h_psi:
     h_psi:pot    :     20.52s CPU     21.09s WALL (     504 calls)
     h_psi:calbec :      4.00s CPU      4.16s WALL (     504 calls)
     vloc_psi     :     13.39s CPU     13.79s WALL (     504 calls)
     add_vuspsi   :      3.12s CPU      3.13s WALL (     504 calls)

     General routines
     calbec       :      5.77s CPU      6.02s WALL (     664 calls)
     fft          :      0.46s CPU      0.49s WALL (     230 calls)
     ffts         :      0.22s CPU      0.22s WALL (     404 calls)
     fftw         :     14.94s CPU     15.38s WALL (   65674 calls)
     interpolate  :      0.05s CPU      0.05s WALL (      17 calls)
 
     Parallel routines
     fft_scatt_xy :      1.56s CPU      1.61s WALL (   66308 calls)
     fft_scatt_yz :      7.57s CPU      7.81s WALL (   66308 calls)
 
     PWSCF        :   1m 2.70s CPU   1m 4.10s WALL

 
   This run was terminated on:  11:46:32   8Sep2021            

=------------------------------------------------------------------------------=
   JOB DONE.
=------------------------------------------------------------------------------=
