
     Program PWSCF v.6.4 starts on 24Dec2021 at 22:16:17 

     This program is part of the open-source Quantum ESPRESSO suite
     for quantum simulation of materials; please cite
         "P. Giannozzi et al., J. Phys.:Condens. Matter 21 395502 (2009);
         "P. Giannozzi et al., J. Phys.:Condens. Matter 29 465901 (2017);
          URL http://www.quantum-espresso.org", 
     in publications or presentations arising from this work. More details at
     http://www.quantum-espresso.org/quote

     Parallel version (MPI), running on    40 processors

     MPI processes distributed on     1 nodes
     R & G space division:  proc/nbgrp/npool/nimage =      40
     Waiting for input...
     Reading input from standard input
Warning: card    &IONS ignored
Warning: card      ION_DYNAMICS = 'BFGS' ignored
Warning: card   / ignored
Warning: card    &CELL ignored
Warning: card      CELL_DYNAMICS = 'BFGS', ignored
Warning: card    / ignored

     Current dimensions of program PWSCF are:
     Max number of different atomic species (ntypx) = 10
     Max number of k-points (npk) =  40000
     Max angular momentum in pseudopotentials (lmaxx) =  3

     Subspace diagonalization in iterative solution of the eigenvalue problem:
     one sub-group per band group will be used
     scalapack distributed-memory algorithm (size of sub-group:  4*  4 procs)

 
     Parallelization info
     --------------------
     sticks:   dense  smooth     PW     G-vecs:    dense   smooth      PW
     Min         248     124     33                19653     6948     986
     Max         249     125     34                19661     6950     992
     Sum        9957    4969   1357               786291   277959   39551
 


     bravais-lattice index     =            0
     lattice parameter (alat)  =      18.6369  a.u.
     unit-cell volume          =    6816.2155 (a.u.)^3
     number of atoms/cell      =           48
     number of atomic types    =            2
     number of electrons       =       288.00
     number of Kohn-Sham states=          173
     kinetic-energy cutoff     =      45.0000  Ry
     charge density cutoff     =     360.0000  Ry
     convergence threshold     =      1.0E-06
     mixing beta               =       0.7000
     number of iterations used =            8  local-TF  mixing
     Exchange-correlation      = SLA PW GGX GGC ( 1  4  2  2 0 0)

     celldm(1)=  18.636890  celldm(2)=   0.000000  celldm(3)=   0.000000
     celldm(4)=   0.000000  celldm(5)=   0.000000  celldm(6)=   0.000000

     crystal axes: (cart. coord. in units of alat)
               a(1) = (   1.000000   0.000000   0.000000 )  
               a(2) = (  -0.020593   1.000818   0.000000 )  
               a(3) = (   0.015139  -0.095695   1.052126 )  

     reciprocal axes: (cart. coord. in units 2 pi/alat)
               b(1) = (  1.000000  0.020576 -0.012518 )  
               b(2) = (  0.000000  0.999182  0.090879 )  
               b(3) = (  0.000000  0.000000  0.950456 )  


     PseudoPot. # 1 for Mo read from file:
     ~/pseudo/Mo.pw91-n-van.UPF
     MD5 check sum: Not computed, couldn't open file
     Pseudo is Ultrasoft + core correction, Zval =  6.0
     Generated by new atomic code, or converted to UPF format
     Using radial grid of  965 points,  3 beta functions with: 
                l(1) =   1
                l(2) =   2
                l(3) =   2
     Q(r) pseudized with  8 coefficients,  rinner =    1.000   1.000   1.000
                                                       1.200   1.200

     PseudoPot. # 2 for S  read from file:
     ~/pseudo/S.pw91-van_ak.UPF
     MD5 check sum: Not computed, couldn't open file
     Pseudo is Ultrasoft, Zval =  6.0
     Generated by new atomic code, or converted to UPF format
     Using radial grid of  811 points,  6 beta functions with: 
                l(1) =   0
                l(2) =   0
                l(3) =   1
                l(4) =   1
                l(5) =   2
                l(6) =   2
     Q(r) pseudized with  8 coefficients,  rinner =    1.100   1.100   1.100
                                                       1.100   1.100

     atomic species   valence    mass     pseudopotential
        Mo             6.00    95.50000     Mo( 1.00)
        S              6.00    32.06500     S ( 1.00)

     No symmetry found



   Cartesian axes

     site n.     atom                  positions (alat units)
         1           Mo  tau(   1) = (   0.3372818   0.8001197   0.3835327  )
         2           Mo  tau(   2) = (   0.3326658   0.6197343   0.1540956  )
         3           Mo  tau(   3) = (   0.1103588   0.8092153   0.1878511  )
         4           Mo  tau(   4) = (   0.1241487   0.6056481   0.3813693  )
         5           Mo  tau(   5) = (   0.8483444   0.3229758   0.3740632  )
         6           Mo  tau(   6) = (   0.8476926   0.1276892   0.1559626  )
         7           Mo  tau(   7) = (   0.6235557   0.2994550   0.2000852  )
         8           Mo  tau(   8) = (   0.6548407   0.1006477   0.3996251  )
         9           Mo  tau(   9) = (   0.8402741   0.8013394   0.8881441  )
        10           Mo  tau(  10) = (   0.8474234   0.5936605   0.6828606  )
        11           Mo  tau(  11) = (   0.6313230   0.8200786   0.6793697  )
        12           Mo  tau(  12) = (   0.6526790   0.5676308   0.8968942  )
        13           Mo  tau(  13) = (   0.3994202   0.2790519   0.8425788  )
        14           Mo  tau(  14) = (   0.6073836   0.0540065   0.8601105  )
        15           Mo  tau(  15) = (   0.1102782   0.3393364   0.6133423  )
        16           Mo  tau(  16) = (   0.2729796   0.0140077   0.7457202  )
        17           S   tau(  17) = (   0.3381405   0.8652661   0.1471779  )
        18           S   tau(  18) = (   0.5865600   0.8114292   0.9309480  )
        19           S   tau(  19) = (   0.3701309   0.5749293   0.3992589  )
        20           S   tau(  20) = (   0.8676699   0.5779210   0.4068764  )
        21           S   tau(  21) = (   0.8846188   0.8814229   0.0974912  )
        22           S   tau(  22) = (   0.5797444   0.6321639   0.0832407  )
        23           S   tau(  23) = (   0.5788338   0.8606932   0.4398048  )
        24           S   tau(  24) = (   0.5993308   0.5783877   0.6507331  )
        25           S   tau(  25) = (   0.8394426   0.3774869   0.1415764  )
        26           S   tau(  26) = (   0.1436808   0.2290409   0.8233491  )
        27           S   tau(  27) = (   0.8968719   0.0786752   0.3904629  )
        28           S   tau(  28) = (   0.4699775   0.1327359   0.6412698  )
        29           S   tau(  29) = (   0.3932678   0.3696974   0.1554917  )
        30           S   tau(  30) = (   0.0922096   0.1446667   0.1139915  )
        31           S   tau(  31) = (   0.1019794   0.3539755   0.3696102  )
        32           S   tau(  32) = (   0.2008380   0.1242773   0.5409230  )
        33           S   tau(  33) = (   0.8694801   0.8335142   0.6557485  )
        34           S   tau(  34) = (   0.0974141   0.8468609   0.4306673  )
        35           S   tau(  35) = (   0.8851359   0.5560253   0.9170314  )
        36           S   tau(  36) = (   0.3384066   0.4933637   0.9447306  )
        37           S   tau(  37) = (   0.3632396   0.8145289   0.6579543  )
        38           S   tau(  38) = (   0.1012408   0.5751360   0.6341692  )
        39           S   tau(  39) = (   0.1025604   0.8642093   0.8622918  )
        40           S   tau(  40) = (   0.0906580   0.5815283   0.1428687  )
        41           S   tau(  41) = (   0.3453512   0.4031552   0.6367575  )
        42           S   tau(  42) = (   0.6130295   0.3370580   0.4315322  )
        43           S   tau(  43) = (   0.3860139   0.0615540   0.9530027  )
        44           S   tau(  44) = (   0.8299134   0.0423526   0.9544311  )
        45           S   tau(  45) = (   0.8704656   0.3457398   0.6397280  )
        46           S   tau(  46) = (   0.7295019   0.0611315   0.6510246  )
        47           S   tau(  47) = (   0.6261751   0.3110175   0.8860302  )
        48           S   tau(  48) = (   0.6096686   0.0569696   0.1686929  )

     number of k points=     8  Marzari-Vanderbilt smearing, width (Ry)=  0.0200
                       cart. coord. in units 2pi/alat
        k(    1) = (   0.0000000   0.0000000   0.0000000), wk =   0.2500000
        k(    2) = (   0.0000000   0.0000000  -0.4752282), wk =   0.2500000
        k(    3) = (   0.0000000  -0.4995912  -0.0454397), wk =   0.2500000
        k(    4) = (   0.0000000  -0.4995912  -0.5206679), wk =   0.2500000
        k(    5) = (  -0.5000000  -0.0102882   0.0062589), wk =   0.2500000
        k(    6) = (  -0.5000000  -0.0102882  -0.4689693), wk =   0.2500000
        k(    7) = (  -0.5000000  -0.5098794  -0.0391808), wk =   0.2500000
        k(    8) = (  -0.5000000  -0.5098794  -0.5144090), wk =   0.2500000

     Dense  grid:   786291 G-vectors     FFT dimensions: ( 120, 120, 120)

     Smooth grid:   277959 G-vectors     FFT dimensions: (  80,  80,  90)

     Estimated max dynamical RAM per process >     150.39 MB

     Estimated total dynamical RAM >       5.87 GB

     Initial potential from superposition of free atoms

     starting charge  287.97477, renormalised to  288.00000
     Starting wfcs are  272 randomized atomic wfcs

     total cpu time spent up to now is        8.6 secs

     Self-consistent Calculation

     iteration #  1     ecut=    45.00 Ry     beta= 0.70
     Davidson diagonalization with overlap
     ethr =  1.00E-02,  avg # of iterations =  2.0

     total cpu time spent up to now is       23.7 secs

     total energy              =   -1123.27082481 Ry
     Harris-Foulkes estimate   =   -1127.79565180 Ry
     estimated scf accuracy    <      12.24000532 Ry

     iteration #  2     ecut=    45.00 Ry     beta= 0.70
     Davidson diagonalization with overlap
     ethr =  4.25E-03,  avg # of iterations =  2.0

     total cpu time spent up to now is       38.1 secs

     total energy              =   -1124.92237306 Ry
     Harris-Foulkes estimate   =   -1126.24938042 Ry
     estimated scf accuracy    <       7.38884405 Ry

     iteration #  3     ecut=    45.00 Ry     beta= 0.70
     Davidson diagonalization with overlap
     ethr =  2.57E-03,  avg # of iterations =  1.0

     total cpu time spent up to now is       48.8 secs

     total energy              =   -1125.60700760 Ry
     Harris-Foulkes estimate   =   -1125.73853084 Ry
     estimated scf accuracy    <       1.13780238 Ry

     iteration #  4     ecut=    45.00 Ry     beta= 0.70
     Davidson diagonalization with overlap
     ethr =  3.95E-04,  avg # of iterations =  1.9

     total cpu time spent up to now is       60.8 secs

     total energy              =   -1125.64721834 Ry
     Harris-Foulkes estimate   =   -1125.68976465 Ry
     estimated scf accuracy    <       0.15411264 Ry

     iteration #  5     ecut=    45.00 Ry     beta= 0.70
     Davidson diagonalization with overlap
     ethr =  5.35E-05,  avg # of iterations =  8.4

     total cpu time spent up to now is       86.4 secs

     total energy              =   -1125.67939629 Ry
     Harris-Foulkes estimate   =   -1125.69107255 Ry
     estimated scf accuracy    <       0.05946923 Ry

     iteration #  6     ecut=    45.00 Ry     beta= 0.70
     Davidson diagonalization with overlap
     ethr =  2.06E-05,  avg # of iterations =  3.5

     total cpu time spent up to now is       99.2 secs

     total energy              =   -1125.68360369 Ry
     Harris-Foulkes estimate   =   -1125.68585472 Ry
     estimated scf accuracy    <       0.02215135 Ry

     iteration #  7     ecut=    45.00 Ry     beta= 0.70
     Davidson diagonalization with overlap
     ethr =  7.69E-06,  avg # of iterations =  2.4

     total cpu time spent up to now is      111.1 secs

     total energy              =   -1125.68442891 Ry
     Harris-Foulkes estimate   =   -1125.68488448 Ry
     estimated scf accuracy    <       0.00284977 Ry

     iteration #  8     ecut=    45.00 Ry     beta= 0.70
     Davidson diagonalization with overlap
     ethr =  9.90E-07,  avg # of iterations =  8.6

     total cpu time spent up to now is      136.1 secs

     total energy              =   -1125.68489697 Ry
     Harris-Foulkes estimate   =   -1125.68510465 Ry
     estimated scf accuracy    <       0.00126463 Ry

     iteration #  9     ecut=    45.00 Ry     beta= 0.70
     Davidson diagonalization with overlap
     ethr =  4.39E-07,  avg # of iterations =  1.4

     total cpu time spent up to now is      147.2 secs

     total energy              =   -1125.68497146 Ry
     Harris-Foulkes estimate   =   -1125.68502400 Ry
     estimated scf accuracy    <       0.00039953 Ry

     iteration # 10     ecut=    45.00 Ry     beta= 0.70
     Davidson diagonalization with overlap
     ethr =  1.39E-07,  avg # of iterations =  1.6

     total cpu time spent up to now is      158.5 secs

     total energy              =   -1125.68500467 Ry
     Harris-Foulkes estimate   =   -1125.68500973 Ry
     estimated scf accuracy    <       0.00005372 Ry

     iteration # 11     ecut=    45.00 Ry     beta= 0.70
     Davidson diagonalization with overlap
     ethr =  1.87E-08,  avg # of iterations =  3.5

     total cpu time spent up to now is      176.2 secs

     total energy              =   -1125.68501783 Ry
     Harris-Foulkes estimate   =   -1125.68501965 Ry
     estimated scf accuracy    <       0.00002076 Ry

     iteration # 12     ecut=    45.00 Ry     beta= 0.70
     Davidson diagonalization with overlap
     ethr =  7.21E-09,  avg # of iterations =  1.4

     total cpu time spent up to now is      187.3 secs

     total energy              =   -1125.68501945 Ry
     Harris-Foulkes estimate   =   -1125.68501959 Ry
     estimated scf accuracy    <       0.00000394 Ry

     iteration # 13     ecut=    45.00 Ry     beta= 0.70
     Davidson diagonalization with overlap
     ethr =  1.37E-09,  avg # of iterations =  2.0

     total cpu time spent up to now is      199.4 secs

     total energy              =   -1125.68501997 Ry
     Harris-Foulkes estimate   =   -1125.68501998 Ry
     estimated scf accuracy    <       0.00000115 Ry

     iteration # 14     ecut=    45.00 Ry     beta= 0.70
     Davidson diagonalization with overlap
     ethr =  4.00E-10,  avg # of iterations =  3.2

     total cpu time spent up to now is      213.3 secs

     End of self-consistent calculation

          k = 0.0000 0.0000 0.0000 ( 34719 PWs)   bands (ev):

    -7.9851  -7.2694  -7.1909  -7.1467  -6.9174  -6.8657  -6.7993  -6.7276
    -6.6826  -6.5732  -6.5379  -6.4734  -6.4298  -6.4019  -6.3475  -6.3184
    -6.2067  -6.1762  -6.0714  -6.0076  -5.9437  -5.8557  -5.7240  -5.6012
    -5.5742  -5.5401  -5.4267  -5.2126  -5.1906  -5.1238  -5.0761  -4.7202
     0.3619   0.4261   0.6145   0.7582   0.8051   0.8726   0.9613   1.0224
     1.0876   1.1117   1.2021   1.3043   1.3290   1.4751   1.5191   1.5663
     1.5792   1.6308   1.6935   1.7571   1.8019   1.8455   1.8991   1.9400
     2.0459   2.0596   2.1184   2.1517   2.1818   2.2055   2.2856   2.3118
     2.3639   2.4072   2.4675   2.5021   2.5338   2.5658   2.6349   2.6407
     2.7107   2.7233   2.7747   2.8127   2.8566   2.8649   2.9101   2.9428
     2.9887   3.0075   3.0533   3.1241   3.1688   3.1913   3.2177   3.2628
     3.3384   3.3491   3.4426   3.4759   3.4895   3.5506   3.5674   3.6512
     3.6863   3.7138   3.7827   3.8126   3.8539   3.9088   3.9867   4.0661
     4.0949   4.1403   4.2068   4.3053   4.3684   4.4279   4.5529   4.5901
     4.6031   4.6461   4.7782   4.9095   4.9456   5.0081   5.0414   5.1078
     5.1765   5.2686   5.3234   5.3658   5.3718   5.3893   5.4668   5.5295
     5.5647   5.6588   5.6982   5.7458   5.7993   5.8192   6.0128   6.0304
     6.0648   6.1432   6.2126   6.2864   6.3452   6.4008   6.4651   6.4777
     6.5902   6.6275   6.6591   6.6980   6.8252   6.8469   7.0024   7.0534
     7.1775   7.2325   7.2471   7.3351   7.4477   7.4797   7.5488   7.6870
     7.7462   7.7987   7.8463   7.9007   7.9477   7.9961   8.0840   8.0948
     8.2163   8.2218   8.3071   8.3687   8.4414

          k = 0.0000 0.0000-0.4752 ( 34734 PWs)   bands (ev):

    -7.9521  -7.3595  -7.1964  -7.1246  -6.8957  -6.8241  -6.7974  -6.7511
    -6.6795  -6.6300  -6.5277  -6.4764  -6.4398  -6.3970  -6.3478  -6.3148
    -6.1929  -6.1686  -6.0789  -5.9824  -5.9303  -5.8526  -5.7506  -5.6016
    -5.5525  -5.5290  -5.4285  -5.2203  -5.1866  -5.1399  -5.0587  -4.7162
     0.3393   0.4559   0.6800   0.7735   0.7881   0.8664   0.9401   0.9894
     1.1061   1.1380   1.2102   1.2881   1.3440   1.3758   1.4391   1.4919
     1.5435   1.5960   1.6511   1.7418   1.8085   1.8263   1.8805   1.9900
     2.0099   2.0726   2.1189   2.1557   2.2012   2.2447   2.2696   2.3017
     2.3250   2.3509   2.4791   2.5160   2.5460   2.6166   2.6355   2.6887
     2.7432   2.7498   2.7892   2.8040   2.8541   2.8733   2.9460   2.9666
     3.0120   3.0219   3.0954   3.1259   3.1845   3.2019   3.2104   3.2337
     3.3326   3.4039   3.4114   3.4699   3.5382   3.5485   3.5556   3.6155
     3.6831   3.7393   3.8240   3.8742   3.9736   3.9936   4.0282   4.0549
     4.1128   4.2396   4.2641   4.3326   4.3638   4.4133   4.4910   4.5238
     4.5662   4.5778   4.6491   4.8284   4.8935   5.0464   5.1018   5.1099
     5.1788   5.2079   5.2816   5.3760   5.4079   5.4471   5.4758   5.5054
     5.5496   5.6194   5.7038   5.7310   5.8206   5.9005   5.9308   6.0316
     6.1006   6.1862   6.2442   6.2638   6.3031   6.3782   6.4276   6.4788
     6.5053   6.5332   6.6050   6.7387   6.8437   6.8885   6.9737   7.0101
     7.1926   7.2778   7.3189   7.3485   7.4424   7.4970   7.5703   7.6235
     7.7171   7.7714   7.8025   7.9135   7.9837   8.0158   8.1048   8.1577
     8.2153   8.2340   8.3781   8.4572   8.4630

          k = 0.0000-0.4996-0.0454 ( 34712 PWs)   bands (ev):

    -7.9232  -7.4552  -7.1164  -7.0836  -6.9122  -6.8161  -6.7878  -6.7312
    -6.6528  -6.6103  -6.5756  -6.5466  -6.4991  -6.4088  -6.3782  -6.3140
    -6.2371  -6.1096  -6.0462  -5.9634  -5.9564  -5.8453  -5.7205  -5.6085
    -5.5570  -5.5306  -5.3755  -5.2213  -5.1894  -5.1452  -5.0702  -4.7195
     0.3648   0.6028   0.7374   0.7721   0.8164   0.8972   1.0280   1.0677
     1.1074   1.1456   1.1643   1.2926   1.3322   1.3641   1.4354   1.4724
     1.5432   1.5683   1.5931   1.7292   1.7809   1.8189   1.8554   1.9046
     2.0173   2.0714   2.1170   2.1491   2.1793   2.2043   2.2304   2.2699
     2.3335   2.3690   2.4433   2.5297   2.5500   2.5656   2.5842   2.6284
     2.6612   2.7001   2.7299   2.8002   2.8642   2.8713   2.8908   2.9413
     2.9693   3.0696   3.0866   3.1155   3.1291   3.1556   3.1980   3.2381
     3.2845   3.3061   3.3619   3.5117   3.5704   3.6055   3.6080   3.6674
     3.6886   3.7676   3.8041   3.8579   3.9270   4.0197   4.0495   4.0928
     4.1444   4.1821   4.2201   4.3290   4.3554   4.5396   4.6023   4.6634
     4.7073   4.7720   4.8644   4.9001   4.9230   4.9809   5.0616   5.0875
     5.1627   5.2038   5.2893   5.3444   5.3790   5.3930   5.5056   5.5220
     5.5945   5.6162   5.6485   5.7333   5.7962   5.8352   5.8569   5.9735
     6.0527   6.0849   6.1554   6.1747   6.3087   6.4186   6.4464   6.5210
     6.5579   6.6492   6.6659   6.7397   6.8102   6.9020   6.9187   6.9960
     7.0777   7.2047   7.3590   7.3940   7.4230   7.5581   7.5940   7.6552
     7.7007   7.7657   7.8812   7.9086   7.9756   8.0126   8.0634   8.1026
     8.1817   8.3028   8.3619   8.5018   8.5546

          k = 0.0000-0.4996-0.5207 ( 34772 PWs)   bands (ev):

    -7.8959  -7.4192  -7.2471  -7.1051  -6.8658  -6.7953  -6.7770  -6.7169
    -6.6883  -6.6461  -6.5882  -6.4679  -6.4565  -6.4372  -6.4080  -6.3121
    -6.2421  -6.1437  -6.0477  -5.9575  -5.9122  -5.8469  -5.7451  -5.5765
    -5.5490  -5.5211  -5.3802  -5.2199  -5.1893  -5.1577  -5.0559  -4.7200
     0.3092   0.5810   0.7019   0.7515   0.8633   0.9663   0.9962   1.0701
     1.1301   1.1727   1.1892   1.2441   1.3580   1.3790   1.4168   1.4969
     1.5246   1.5503   1.6330   1.6517   1.7387   1.7679   1.8556   1.8731
     1.9489   2.0190   2.0515   2.1324   2.1746   2.2677   2.2994   2.3147
     2.3405   2.4335   2.4500   2.4846   2.5122   2.5816   2.6144   2.6475
     2.6813   2.7274   2.7782   2.7907   2.8497   2.8763   2.8837   2.9135
     2.9551   3.0070   3.0301   3.0743   3.1790   3.2063   3.2223   3.2838
     3.2945   3.3621   3.3956   3.4276   3.4904   3.5553   3.6413   3.6763
     3.7312   3.8129   3.8455   3.9311   3.9769   4.0839   4.0964   4.1396
     4.1819   4.2357   4.3413   4.3967   4.4151   4.4893   4.4952   4.5804
     4.6653   4.7297   4.8021   4.8722   4.9040   4.9734   5.0135   5.0979
     5.1212   5.1883   5.2520   5.3487   5.3770   5.4391   5.4556   5.5060
     5.5354   5.6402   5.6551   5.7687   5.8289   5.8655   5.9036   6.0212
     6.0399   6.0836   6.1779   6.2404   6.3017   6.3445   6.3969   6.4358
     6.4953   6.5834   6.6938   6.7303   6.8506   6.8751   6.9755   7.0066
     7.1095   7.1779   7.2800   7.4142   7.4871   7.5719   7.5942   7.6605
     7.6833   7.7067   7.8554   7.9095   7.9231   8.0583   8.1584   8.1750
     8.2485   8.2710   8.3408   8.4517   8.5220

          k =-0.5000-0.0103 0.0063 ( 34758 PWs)   bands (ev):

    -7.9210  -7.4729  -7.1338  -7.0557  -6.9959  -6.8350  -6.7744  -6.7058
    -6.6403  -6.5956  -6.5258  -6.4993  -6.4632  -6.3889  -6.3784  -6.3102
    -6.2040  -6.1496  -6.1245  -6.0090  -5.9064  -5.8864  -5.7155  -5.6161
    -5.5677  -5.5324  -5.3567  -5.2031  -5.1941  -5.1523  -5.0729  -4.7176
     0.3216   0.4314   0.6383   0.8350   0.9108   0.9615   0.9924   1.0379
     1.0856   1.1164   1.1730   1.2924   1.3946   1.4534   1.4924   1.5190
     1.5627   1.6105   1.7055   1.7466   1.7746   1.8262   1.8804   1.9122
     1.9743   2.0143   2.0737   2.1309   2.1554   2.1979   2.2157   2.3172
     2.3512   2.4032   2.4238   2.4661   2.5317   2.5602   2.5908   2.6214
     2.6621   2.6864   2.7134   2.7718   2.8288   2.8474   2.8676   2.9287
     2.9940   3.0246   3.0571   3.0995   3.1381   3.1866   3.2423   3.2835
     3.3098   3.3742   3.4285   3.4669   3.4908   3.5109   3.6322   3.6708
     3.6876   3.7419   3.8190   3.8676   3.9029   3.9914   4.0512   4.0693
     4.1532   4.2213   4.2817   4.3598   4.4487   4.4858   4.5359   4.5922
     4.6879   4.7062   4.8436   4.9253   4.9551   5.0319   5.0697   5.0903
     5.1748   5.2159   5.2407   5.3415   5.3619   5.4519   5.4568   5.5403
     5.5706   5.6047   5.6848   5.7436   5.7909   5.8604   5.9504   6.0046
     6.0555   6.1196   6.1814   6.2266   6.3347   6.4367   6.4705   6.4911
     6.6198   6.6459   6.6905   6.7469   6.8143   6.8396   6.9441   7.0558
     7.1374   7.2610   7.2705   7.3463   7.4143   7.4871   7.6185   7.6528
     7.7102   7.7860   7.8051   7.8636   7.9086   8.0090   8.0979   8.1669
     8.2106   8.2425   8.3384   8.4036   8.4933

          k =-0.5000-0.0103-0.4690 ( 34726 PWs)   bands (ev):

    -7.8938  -7.4380  -7.2498  -7.0948  -6.9690  -6.7951  -6.7537  -6.7058
    -6.6625  -6.6123  -6.5235  -6.4897  -6.4538  -6.3969  -6.3703  -6.3440
    -6.2213  -6.1322  -6.1077  -5.9578  -5.9290  -5.8613  -5.7372  -5.6057
    -5.5629  -5.5192  -5.3600  -5.2148  -5.1848  -5.1643  -5.0650  -4.7143
     0.3087   0.4307   0.6417   0.8418   0.8897   0.9405   0.9727   1.0294
     1.1615   1.1805   1.2321   1.2902   1.3291   1.4216   1.4521   1.4738
     1.5360   1.6066   1.6375   1.7310   1.7408   1.8241   1.8399   1.9004
     1.9453   1.9963   2.0478   2.1363   2.1500   2.2026   2.2645   2.3046
     2.3260   2.3605   2.4285   2.4706   2.4932   2.5581   2.5807   2.6448
     2.6959   2.7196   2.7696   2.7803   2.8440   2.9043   2.9450   2.9603
     3.0150   3.0347   3.0711   3.1258   3.1393   3.1611   3.2229   3.2625
     3.3450   3.3976   3.4187   3.4512   3.4936   3.5221   3.6097   3.6722
     3.7299   3.7894   3.8693   3.9012   4.0002   4.0396   4.0642   4.1994
     4.2133   4.2615   4.2732   4.3290   4.4325   4.4921   4.5102   4.5387
     4.6116   4.6673   4.7713   4.8563   4.9217   5.0037   5.0295   5.0927
     5.1517   5.1661   5.2302   5.3181   5.3349   5.4257   5.4654   5.5723
     5.6075   5.6450   5.6727   5.7286   5.7891   5.8433   5.9153   6.0423
     6.0727   6.1761   6.2142   6.2830   6.3058   6.3722   6.4867   6.5218
     6.5640   6.6307   6.7095   6.7265   6.8285   6.9318   6.9617   7.0459
     7.1446   7.1941   7.2867   7.3932   7.3996   7.4473   7.5161   7.6096
     7.6783   7.7630   7.8197   7.9046   7.9495   8.0401   8.0594   8.1374
     8.2106   8.2609   8.2853   8.3766   8.5135

          k =-0.5000-0.5099-0.0392 ( 34744 PWs)   bands (ev):

    -7.8853  -7.3666  -7.2376  -7.1453  -7.0334  -6.8525  -6.7485  -6.6915
    -6.6330  -6.6134  -6.5452  -6.4948  -6.4593  -6.3999  -6.3685  -6.2951
    -6.2062  -6.1504  -6.0870  -6.0153  -5.9068  -5.8646  -5.6879  -5.6194
    -5.5546  -5.5104  -5.3841  -5.2210  -5.1805  -5.1549  -5.0690  -4.7140
     0.3779   0.6229   0.7027   0.8369   0.9500   0.9975   1.0231   1.0515
     1.1602   1.1987   1.2388   1.2781   1.3103   1.3634   1.4065   1.4919
     1.5340   1.5640   1.6226   1.6545   1.6708   1.7668   1.8177   1.8483
     1.8903   1.9291   1.9747   2.0209   2.0887   2.1982   2.2310   2.3115
     2.3239   2.3553   2.3769   2.4875   2.5300   2.5442   2.6204   2.6425
     2.6830   2.7600   2.7725   2.8412   2.8589   2.8999   2.9434   2.9597
     2.9927   2.9996   3.0081   3.0737   3.1337   3.1751   3.2162   3.2890
     3.3364   3.3909   3.4102   3.4671   3.5027   3.5573   3.5932   3.6797
     3.7885   3.8225   3.8661   3.9066   3.9549   3.9718   4.1121   4.1387
     4.1752   4.3003   4.3330   4.3415   4.4288   4.5219   4.6034   4.6361
     4.6958   4.7624   4.7789   4.8602   4.9108   4.9714   5.0574   5.0709
     5.1462   5.2020   5.2410   5.3129   5.3777   5.4226   5.4438   5.4803
     5.6341   5.6493   5.6642   5.7254   5.7806   5.8544   5.9018   5.9997
     6.1014   6.1318   6.2110   6.2135   6.3035   6.3614   6.4966   6.5166
     6.5807   6.6060   6.6523   6.7375   6.8523   6.8939   6.9391   6.9608
     7.1243   7.2081   7.3170   7.4037   7.4492   7.5279   7.5629   7.5800
     7.7007   7.7371   7.8467   7.9024   7.9875   8.0487   8.1159   8.1880
     8.2193   8.2502   8.4304   8.5284   8.5494

          k =-0.5000-0.5099-0.5144 ( 34794 PWs)   bands (ev):

    -7.8621  -7.3340  -7.2586  -7.1771  -7.0017  -6.8540  -6.8349  -6.7637
    -6.6750  -6.5729  -6.5306  -6.4968  -6.4145  -6.3898  -6.3656  -6.2816
    -6.2106  -6.1392  -6.0872  -5.9556  -5.9175  -5.8616  -5.7090  -5.6049
    -5.5577  -5.5037  -5.3799  -5.2077  -5.1934  -5.1579  -5.0644  -4.7177
     0.3368   0.5652   0.7411   0.8189   0.8925   1.0140   1.0536   1.0777
     1.1463   1.1888   1.2084   1.2887   1.3295   1.3941   1.4020   1.4751
     1.4824   1.5925   1.6465   1.6505   1.7153   1.7737   1.8081   1.8328
     1.9201   1.9516   1.9915   2.0869   2.0926   2.1416   2.1798   2.2569
     2.2822   2.3186   2.3429   2.4507   2.5030   2.5402   2.6108   2.6701
     2.6721   2.7200   2.7572   2.8009   2.8609   2.8958   2.8995   2.9410
     3.0165   3.0308   3.0686   3.1122   3.1727   3.2176   3.2467   3.3007
     3.3395   3.4056   3.4361   3.5145   3.5386   3.5718   3.6560   3.7429
     3.7729   3.8708   3.9007   3.9375   3.9625   4.0444   4.0786   4.2068
     4.2331   4.2861   4.3446   4.3962   4.4528   4.4974   4.5037   4.5699
     4.6250   4.7322   4.8000   4.8201   4.8576   4.8901   5.0114   5.0769
     5.1148   5.1531   5.2152   5.2725   5.3855   5.4292   5.4560   5.5362
     5.6134   5.6341   5.6595   5.7385   5.8101   5.8798   5.9941   6.0172
     6.0629   6.0908   6.2011   6.2219   6.3143   6.3920   6.4925   6.5333
     6.6339   6.6433   6.7093   6.7702   6.8193   6.8721   6.9478   7.0016
     7.1142   7.1203   7.2513   7.3985   7.4425   7.5049   7.5243   7.6023
     7.7296   7.7693   7.8317   7.9081   7.9259   8.0177   8.0801   8.1216
     8.2288   8.2668   8.3544   8.4490   8.5450

     the Fermi energy is     6.5345 ev

!    total energy              =   -1125.68501985 Ry
     Harris-Foulkes estimate   =   -1125.68502017 Ry
     estimated scf accuracy    <       0.00000041 Ry

     The total energy is the sum of the following terms:

     one-electron contribution =     -22.37866907 Ry
     hartree contribution      =     174.29725479 Ry
     xc contribution           =    -444.21090136 Ry
     ewald contribution        =    -833.39136075 Ry
     smearing contrib. (-TS)   =      -0.00134346 Ry

     convergence has been achieved in  14 iterations

     Forces acting on atoms (cartesian axes, Ry/au):

     atom    1 type  1   force =    -0.01439813    0.05901939    0.03462831
     atom    2 type  1   force =     0.02668389   -0.01362274    0.00958609
     atom    3 type  1   force =    -0.02517948    0.06717609    0.01914412
     atom    4 type  1   force =    -0.01108259   -0.00423219    0.00019705
     atom    5 type  1   force =     0.03076703    0.00170115    0.04727177
     atom    6 type  1   force =     0.08008073    0.02912377    0.00567474
     atom    7 type  1   force =    -0.07850801    0.00861158   -0.00783897
     atom    8 type  1   force =     0.02490477   -0.00787507    0.02185456
     atom    9 type  1   force =    -0.01260924   -0.04901620    0.05463951
     atom   10 type  1   force =    -0.02845971    0.01666096   -0.05714194
     atom   11 type  1   force =    -0.02300318   -0.00805185    0.04726976
     atom   12 type  1   force =    -0.07346135    0.02022757   -0.00292775
     atom   13 type  1   force =    -0.00640346    0.02515957   -0.03349059
     atom   14 type  1   force =     0.00186134    0.02903924   -0.03725414
     atom   15 type  1   force =    -0.02206935   -0.02478518   -0.02037502
     atom   16 type  1   force =    -0.00208475   -0.03277011    0.01494189
     atom   17 type  2   force =     0.01080648   -0.00201284    0.00454559
     atom   18 type  2   force =     0.03089467   -0.01594610   -0.02176061
     atom   19 type  2   force =    -0.00259860   -0.02574051   -0.02946365
     atom   20 type  2   force =     0.00314378    0.00162733    0.02551242
     atom   21 type  2   force =     0.00970687   -0.00549564   -0.00259653
     atom   22 type  2   force =     0.01054660   -0.00891988   -0.00099676
     atom   23 type  2   force =    -0.01001737   -0.00071511   -0.02787501
     atom   24 type  2   force =     0.03705752   -0.00556032    0.02389375
     atom   25 type  2   force =     0.01202003   -0.01584849   -0.02700119
     atom   26 type  2   force =    -0.00752475   -0.02371125    0.01782609
     atom   27 type  2   force =    -0.02725473    0.01972233   -0.00403598
     atom   28 type  2   force =    -0.01154685    0.00273078    0.04957547
     atom   29 type  2   force =     0.02546721   -0.00825184   -0.01176151
     atom   30 type  2   force =    -0.03753149   -0.03592992    0.00747238
     atom   31 type  2   force =     0.00216347   -0.01299562   -0.01625977
     atom   32 type  2   force =    -0.00259265   -0.01895089   -0.01007878
     atom   33 type  2   force =     0.03792952   -0.00430138   -0.03257059
     atom   34 type  2   force =     0.02393347   -0.01981029   -0.04871959
     atom   35 type  2   force =     0.02764972    0.00922884    0.00708874
     atom   36 type  2   force =     0.01899744    0.00260687    0.00510836
     atom   37 type  2   force =     0.00618422   -0.00864162   -0.03340952
     atom   38 type  2   force =    -0.00685868    0.05946569    0.01936233
     atom   39 type  2   force =    -0.00883121    0.01974777   -0.00483503
     atom   40 type  2   force =    -0.00379243   -0.02921774   -0.02286379
     atom   41 type  2   force =     0.00458365   -0.01057718    0.02085917
     atom   42 type  2   force =    -0.00647044    0.00466430    0.01085088
     atom   43 type  2   force =    -0.02527205    0.00220301    0.02235067
     atom   44 type  2   force =     0.01402516    0.00748221   -0.00901274
     atom   45 type  2   force =    -0.00589822   -0.00921753   -0.00070761
     atom   46 type  2   force =    -0.00933861   -0.00784860   -0.01577148
     atom   47 type  2   force =     0.03060846    0.00397767    0.01460849
     atom   48 type  2   force =    -0.00722870    0.01986993   -0.00551362

     Total force =     0.301649     Total SCF correction =     0.001239
 
     init_run     :      7.72s CPU      7.91s WALL (       1 calls)
     electrons    :    200.75s CPU    204.68s WALL (       1 calls)
     forces       :      4.26s CPU      4.39s WALL (       1 calls)

     Called by init_run:
     wfcinit      :      5.82s CPU      5.95s WALL (       1 calls)
     potinit      :      0.51s CPU      0.51s WALL (       1 calls)
     hinit0       :      0.69s CPU      0.71s WALL (       1 calls)

     Called by electrons:
     c_bands      :    170.93s CPU    173.30s WALL (      14 calls)
     sum_band     :     24.34s CPU     25.51s WALL (      14 calls)
     v_of_rho     :      0.92s CPU      0.97s WALL (      15 calls)
     newd         :      3.90s CPU      4.19s WALL (      15 calls)
     mix_rho      :      0.83s CPU      0.89s WALL (      14 calls)

     Called by c_bands:
     init_us_2    :      2.47s CPU      2.48s WALL (     240 calls)
     cegterg      :    159.65s CPU    161.95s WALL (     112 calls)

     Called by sum_band:
     sum_band:bec :      0.28s CPU      0.28s WALL (     112 calls)
     addusdens    :      5.40s CPU      6.01s WALL (      14 calls)

     Called by *egterg:
     h_psi        :     82.56s CPU     84.26s WALL (     463 calls)
     s_psi        :     17.75s CPU     17.78s WALL (     463 calls)
     g_psi        :      0.31s CPU      0.31s WALL (     343 calls)
     cdiaghg      :     34.82s CPU     35.34s WALL (     455 calls)

     Called by h_psi:
     h_psi:pot    :     81.96s CPU     83.64s WALL (     463 calls)
     h_psi:calbec :     18.69s CPU     19.37s WALL (     463 calls)
     vloc_psi     :     44.82s CPU     45.77s WALL (     463 calls)
     add_vuspsi   :     18.44s CPU     18.50s WALL (     463 calls)

     General routines
     calbec       :     28.01s CPU     29.05s WALL (     607 calls)
     fft          :      0.72s CPU      0.78s WALL (     204 calls)
     ffts         :      0.40s CPU      0.45s WALL (     346 calls)
     fftw         :     48.97s CPU     50.04s WALL (  114632 calls)
     interpolate  :      0.09s CPU      0.09s WALL (      15 calls)
 
     Parallel routines
     fft_scatt_xy :      5.57s CPU      5.69s WALL (  115182 calls)
     fft_scatt_yz :     20.15s CPU     20.68s WALL (  115182 calls)
 
     PWSCF        :   3m33.43s CPU   3m37.89s WALL

 
   This run was terminated on:  22:19:55  24Dec2021            

=------------------------------------------------------------------------------=
   JOB DONE.
=------------------------------------------------------------------------------=

     Program PWSCF v.6.4 starts on 24Dec2021 at 22:44:15 

     This program is part of the open-source Quantum ESPRESSO suite
     for quantum simulation of materials; please cite
         "P. Giannozzi et al., J. Phys.:Condens. Matter 21 395502 (2009);
         "P. Giannozzi et al., J. Phys.:Condens. Matter 29 465901 (2017);
          URL http://www.quantum-espresso.org", 
     in publications or presentations arising from this work. More details at
     http://www.quantum-espresso.org/quote

     Parallel version (MPI), running on    40 processors

     MPI processes distributed on     1 nodes
     R & G space division:  proc/nbgrp/npool/nimage =      40
     Waiting for input...
     Reading input from standard input
Warning: card    &IONS ignored
Warning: card      ION_DYNAMICS = 'BFGS' ignored
Warning: card   / ignored
Warning: card    &CELL ignored
Warning: card      CELL_DYNAMICS = 'BFGS', ignored
Warning: card    / ignored

     Current dimensions of program PWSCF are:
     Max number of different atomic species (ntypx) = 10
     Max number of k-points (npk) =  40000
     Max angular momentum in pseudopotentials (lmaxx) =  3

     Subspace diagonalization in iterative solution of the eigenvalue problem:
     one sub-group per band group will be used
     scalapack distributed-memory algorithm (size of sub-group:  4*  4 procs)

 
     Parallelization info
     --------------------
     sticks:   dense  smooth     PW     G-vecs:    dense   smooth      PW
     Min         248     124     33                19653     6948     986
     Max         249     125     34                19661     6950     992
     Sum        9957    4969   1357               786291   277959   39551
 


     bravais-lattice index     =            0
     lattice parameter (alat)  =      18.6369  a.u.
     unit-cell volume          =    6816.2155 (a.u.)^3
     number of atoms/cell      =           48
     number of atomic types    =            2
     number of electrons       =       288.00
     number of Kohn-Sham states=          173
     kinetic-energy cutoff     =      45.0000  Ry
     charge density cutoff     =     360.0000  Ry
     convergence threshold     =      1.0E-06
     mixing beta               =       0.7000
     number of iterations used =            8  local-TF  mixing
     Exchange-correlation      = SLA PW GGX GGC ( 1  4  2  2 0 0)

     celldm(1)=  18.636890  celldm(2)=   0.000000  celldm(3)=   0.000000
     celldm(4)=   0.000000  celldm(5)=   0.000000  celldm(6)=   0.000000

     crystal axes: (cart. coord. in units of alat)
               a(1) = (   1.000000   0.000000   0.000000 )  
               a(2) = (  -0.020593   1.000818   0.000000 )  
               a(3) = (   0.015139  -0.095695   1.052126 )  

     reciprocal axes: (cart. coord. in units 2 pi/alat)
               b(1) = (  1.000000  0.020576 -0.012518 )  
               b(2) = (  0.000000  0.999182  0.090879 )  
               b(3) = (  0.000000  0.000000  0.950456 )  


     PseudoPot. # 1 for Mo read from file:
     ~/pseudo/Mo.pw91-n-van.UPF
     MD5 check sum: Not computed, couldn't open file
     Pseudo is Ultrasoft + core correction, Zval =  6.0
     Generated by new atomic code, or converted to UPF format
     Using radial grid of  965 points,  3 beta functions with: 
                l(1) =   1
                l(2) =   2
                l(3) =   2
     Q(r) pseudized with  8 coefficients,  rinner =    1.000   1.000   1.000
                                                       1.200   1.200

     PseudoPot. # 2 for S  read from file:
     ~/pseudo/S.pw91-van_ak.UPF
     MD5 check sum: Not computed, couldn't open file
     Pseudo is Ultrasoft, Zval =  6.0
     Generated by new atomic code, or converted to UPF format
     Using radial grid of  811 points,  6 beta functions with: 
                l(1) =   0
                l(2) =   0
                l(3) =   1
                l(4) =   1
                l(5) =   2
                l(6) =   2
     Q(r) pseudized with  8 coefficients,  rinner =    1.100   1.100   1.100
                                                       1.100   1.100

     atomic species   valence    mass     pseudopotential
        Mo             6.00    95.50000     Mo( 1.00)
        S              6.00    32.06500     S ( 1.00)

     No symmetry found



   Cartesian axes

     site n.     atom                  positions (alat units)
         1           Mo  tau(   1) = (   0.3372818   0.8001197   0.3835327  )
         2           Mo  tau(   2) = (   0.3326658   0.6197343   0.1540956  )
         3           Mo  tau(   3) = (   0.1103588   0.8092153   0.1878511  )
         4           Mo  tau(   4) = (   0.1241487   0.6056481   0.3813693  )
         5           Mo  tau(   5) = (   0.8483444   0.3229758   0.3740632  )
         6           Mo  tau(   6) = (   0.8476926   0.1276892   0.1559626  )
         7           Mo  tau(   7) = (   0.6235557   0.2994550   0.2000852  )
         8           Mo  tau(   8) = (   0.6548407   0.1006477   0.3996251  )
         9           Mo  tau(   9) = (   0.8402741   0.8013394   0.8881441  )
        10           Mo  tau(  10) = (   0.8474234   0.5936605   0.6828606  )
        11           Mo  tau(  11) = (   0.6313230   0.8200786   0.6793697  )
        12           Mo  tau(  12) = (   0.6526790   0.5676308   0.8968942  )
        13           Mo  tau(  13) = (   0.3994202   0.2790519   0.8425788  )
        14           Mo  tau(  14) = (   0.6073836   0.0540065   0.8601105  )
        15           Mo  tau(  15) = (   0.1102782   0.3393364   0.6133423  )
        16           Mo  tau(  16) = (   0.2729796   0.0140077   0.7457202  )
        17           S   tau(  17) = (   0.3381405   0.8652661   0.1471779  )
        18           S   tau(  18) = (   0.5865600   0.8114292   0.9309480  )
        19           S   tau(  19) = (   0.3701309   0.5749293   0.3992589  )
        20           S   tau(  20) = (   0.8676699   0.5779210   0.4068764  )
        21           S   tau(  21) = (   0.8846188   0.8814229   0.0974912  )
        22           S   tau(  22) = (   0.5797444   0.6321639   0.0832407  )
        23           S   tau(  23) = (   0.5788338   0.8606932   0.4398048  )
        24           S   tau(  24) = (   0.5993308   0.5783877   0.6507331  )
        25           S   tau(  25) = (   0.8394426   0.3774869   0.1415764  )
        26           S   tau(  26) = (   0.1436808   0.2290409   0.8233491  )
        27           S   tau(  27) = (   0.8968719   0.0786752   0.3904629  )
        28           S   tau(  28) = (   0.4699775   0.1327359   0.6412698  )
        29           S   tau(  29) = (   0.3932678   0.3696974   0.1554917  )
        30           S   tau(  30) = (   0.0922096   0.1446667   0.1139915  )
        31           S   tau(  31) = (   0.1019794   0.3539755   0.3696102  )
        32           S   tau(  32) = (   0.2008380   0.1242773   0.5409230  )
        33           S   tau(  33) = (   0.8694801   0.8335142   0.6557485  )
        34           S   tau(  34) = (   0.0974141   0.8468609   0.4306673  )
        35           S   tau(  35) = (   0.8851359   0.5560253   0.9170314  )
        36           S   tau(  36) = (   0.3384066   0.4933637   0.9447306  )
        37           S   tau(  37) = (   0.3632396   0.8145289   0.6579543  )
        38           S   tau(  38) = (   0.1012408   0.5751360   0.6341692  )
        39           S   tau(  39) = (   0.1025604   0.8642093   0.8622918  )
        40           S   tau(  40) = (   0.0906580   0.5815283   0.1428687  )
        41           S   tau(  41) = (   0.3453512   0.4031552   0.6367575  )
        42           S   tau(  42) = (   0.6130295   0.3370580   0.4315322  )
        43           S   tau(  43) = (   0.3860139   0.0615540   0.9530027  )
        44           S   tau(  44) = (   0.8299134   0.0423526   0.9544311  )
        45           S   tau(  45) = (   0.8704656   0.3457398   0.6397280  )
        46           S   tau(  46) = (   0.7295019   0.0611315   0.6510246  )
        47           S   tau(  47) = (   0.6261751   0.3110175   0.8860302  )
        48           S   tau(  48) = (   0.6096686   0.0569696   0.1686929  )

     number of k points=     8  Marzari-Vanderbilt smearing, width (Ry)=  0.0200
                       cart. coord. in units 2pi/alat
        k(    1) = (   0.0000000   0.0000000   0.0000000), wk =   0.2500000
        k(    2) = (   0.0000000   0.0000000  -0.4752282), wk =   0.2500000
        k(    3) = (   0.0000000  -0.4995912  -0.0454397), wk =   0.2500000
        k(    4) = (   0.0000000  -0.4995912  -0.5206679), wk =   0.2500000
        k(    5) = (  -0.5000000  -0.0102882   0.0062589), wk =   0.2500000
        k(    6) = (  -0.5000000  -0.0102882  -0.4689693), wk =   0.2500000
        k(    7) = (  -0.5000000  -0.5098794  -0.0391808), wk =   0.2500000
        k(    8) = (  -0.5000000  -0.5098794  -0.5144090), wk =   0.2500000

     Dense  grid:   786291 G-vectors     FFT dimensions: ( 120, 120, 120)

     Smooth grid:   277959 G-vectors     FFT dimensions: (  80,  80,  90)

     Estimated max dynamical RAM per process >     150.39 MB

     Estimated total dynamical RAM >       5.87 GB

     Initial potential from superposition of free atoms

     starting charge  287.97477, renormalised to  288.00000
     Starting wfcs are  272 randomized atomic wfcs

     total cpu time spent up to now is        9.4 secs

     Self-consistent Calculation

     iteration #  1     ecut=    45.00 Ry     beta= 0.70
     Davidson diagonalization with overlap
     ethr =  1.00E-02,  avg # of iterations =  2.0

     total cpu time spent up to now is       26.6 secs

     total energy              =   -1123.27082481 Ry
     Harris-Foulkes estimate   =   -1127.79565180 Ry
     estimated scf accuracy    <      12.24000532 Ry

     iteration #  2     ecut=    45.00 Ry     beta= 0.70
     Davidson diagonalization with overlap
     ethr =  4.25E-03,  avg # of iterations =  2.0

     total cpu time spent up to now is       43.1 secs

     total energy              =   -1124.92237306 Ry
     Harris-Foulkes estimate   =   -1126.24938042 Ry
     estimated scf accuracy    <       7.38884405 Ry

     iteration #  3     ecut=    45.00 Ry     beta= 0.70
     Davidson diagonalization with overlap
     ethr =  2.57E-03,  avg # of iterations =  1.0

     total cpu time spent up to now is       55.4 secs

     total energy              =   -1125.60700760 Ry
     Harris-Foulkes estimate   =   -1125.73853084 Ry
     estimated scf accuracy    <       1.13780238 Ry

     iteration #  4     ecut=    45.00 Ry     beta= 0.70
     Davidson diagonalization with overlap
     ethr =  3.95E-04,  avg # of iterations =  1.9

     total cpu time spent up to now is       68.5 secs

     total energy              =   -1125.64721834 Ry
     Harris-Foulkes estimate   =   -1125.68976465 Ry
     estimated scf accuracy    <       0.15411264 Ry

     iteration #  5     ecut=    45.00 Ry     beta= 0.70
     Davidson diagonalization with overlap
     ethr =  5.35E-05,  avg # of iterations =  8.4

     total cpu time spent up to now is       96.4 secs

     total energy              =   -1125.67939629 Ry
     Harris-Foulkes estimate   =   -1125.69107255 Ry
     estimated scf accuracy    <       0.05946923 Ry

     iteration #  6     ecut=    45.00 Ry     beta= 0.70
     Davidson diagonalization with overlap
     ethr =  2.06E-05,  avg # of iterations =  3.5

     total cpu time spent up to now is      111.1 secs

     total energy              =   -1125.68360369 Ry
     Harris-Foulkes estimate   =   -1125.68585472 Ry
     estimated scf accuracy    <       0.02215135 Ry

     iteration #  7     ecut=    45.00 Ry     beta= 0.70
     Davidson diagonalization with overlap
     ethr =  7.69E-06,  avg # of iterations =  2.4

     total cpu time spent up to now is      124.6 secs

     total energy              =   -1125.68442891 Ry
     Harris-Foulkes estimate   =   -1125.68488448 Ry
     estimated scf accuracy    <       0.00284977 Ry

     iteration #  8     ecut=    45.00 Ry     beta= 0.70
     Davidson diagonalization with overlap
     ethr =  9.90E-07,  avg # of iterations =  8.6

     total cpu time spent up to now is      152.6 secs

     total energy              =   -1125.68489697 Ry
     Harris-Foulkes estimate   =   -1125.68510465 Ry
     estimated scf accuracy    <       0.00126463 Ry

     iteration #  9     ecut=    45.00 Ry     beta= 0.70
     Davidson diagonalization with overlap
     ethr =  4.39E-07,  avg # of iterations =  1.4

     total cpu time spent up to now is      165.3 secs

     total energy              =   -1125.68497146 Ry
     Harris-Foulkes estimate   =   -1125.68502400 Ry
     estimated scf accuracy    <       0.00039953 Ry

     iteration # 10     ecut=    45.00 Ry     beta= 0.70
     Davidson diagonalization with overlap
     ethr =  1.39E-07,  avg # of iterations =  1.6

     total cpu time spent up to now is      178.2 secs

     total energy              =   -1125.68500467 Ry
     Harris-Foulkes estimate   =   -1125.68500973 Ry
     estimated scf accuracy    <       0.00005372 Ry

     iteration # 11     ecut=    45.00 Ry     beta= 0.70
     Davidson diagonalization with overlap
     ethr =  1.87E-08,  avg # of iterations =  3.5

     total cpu time spent up to now is      199.4 secs

     total energy              =   -1125.68501783 Ry
     Harris-Foulkes estimate   =   -1125.68501965 Ry
     estimated scf accuracy    <       0.00002076 Ry

     iteration # 12     ecut=    45.00 Ry     beta= 0.70
     Davidson diagonalization with overlap
     ethr =  7.21E-09,  avg # of iterations =  1.4

     total cpu time spent up to now is      212.2 secs

     total energy              =   -1125.68501945 Ry
     Harris-Foulkes estimate   =   -1125.68501959 Ry
     estimated scf accuracy    <       0.00000394 Ry

     iteration # 13     ecut=    45.00 Ry     beta= 0.70
     Davidson diagonalization with overlap
     ethr =  1.37E-09,  avg # of iterations =  2.0

     total cpu time spent up to now is      226.0 secs

     total energy              =   -1125.68501997 Ry
     Harris-Foulkes estimate   =   -1125.68501998 Ry
     estimated scf accuracy    <       0.00000115 Ry

     iteration # 14     ecut=    45.00 Ry     beta= 0.70
     Davidson diagonalization with overlap
     ethr =  4.00E-10,  avg # of iterations =  3.2

     total cpu time spent up to now is      241.7 secs

     End of self-consistent calculation

          k = 0.0000 0.0000 0.0000 ( 34719 PWs)   bands (ev):

    -7.9851  -7.2694  -7.1909  -7.1467  -6.9174  -6.8657  -6.7993  -6.7276
    -6.6826  -6.5732  -6.5379  -6.4734  -6.4298  -6.4019  -6.3475  -6.3184
    -6.2067  -6.1762  -6.0714  -6.0076  -5.9437  -5.8557  -5.7240  -5.6012
    -5.5742  -5.5401  -5.4267  -5.2126  -5.1906  -5.1238  -5.0761  -4.7202
     0.3619   0.4261   0.6145   0.7582   0.8051   0.8726   0.9613   1.0224
     1.0876   1.1117   1.2021   1.3043   1.3290   1.4751   1.5191   1.5663
     1.5792   1.6308   1.6935   1.7571   1.8019   1.8455   1.8991   1.9400
     2.0459   2.0596   2.1184   2.1517   2.1818   2.2055   2.2856   2.3118
     2.3639   2.4072   2.4675   2.5021   2.5338   2.5658   2.6349   2.6407
     2.7107   2.7233   2.7747   2.8127   2.8566   2.8649   2.9101   2.9428
     2.9887   3.0075   3.0533   3.1241   3.1688   3.1913   3.2177   3.2628
     3.3384   3.3491   3.4426   3.4759   3.4895   3.5506   3.5674   3.6512
     3.6863   3.7138   3.7827   3.8126   3.8539   3.9088   3.9867   4.0661
     4.0949   4.1403   4.2068   4.3053   4.3684   4.4279   4.5529   4.5901
     4.6031   4.6461   4.7782   4.9095   4.9456   5.0081   5.0414   5.1078
     5.1765   5.2686   5.3234   5.3658   5.3718   5.3893   5.4668   5.5295
     5.5647   5.6588   5.6982   5.7458   5.7993   5.8192   6.0128   6.0304
     6.0648   6.1432   6.2126   6.2864   6.3452   6.4008   6.4651   6.4777
     6.5902   6.6275   6.6591   6.6980   6.8252   6.8469   7.0024   7.0534
     7.1775   7.2325   7.2471   7.3351   7.4477   7.4797   7.5488   7.6870
     7.7462   7.7987   7.8463   7.9007   7.9477   7.9961   8.0840   8.0948
     8.2163   8.2218   8.3071   8.3687   8.4414

          k = 0.0000 0.0000-0.4752 ( 34734 PWs)   bands (ev):

    -7.9521  -7.3595  -7.1964  -7.1246  -6.8957  -6.8241  -6.7974  -6.7511
    -6.6795  -6.6300  -6.5277  -6.4764  -6.4398  -6.3970  -6.3478  -6.3148
    -6.1929  -6.1686  -6.0789  -5.9824  -5.9303  -5.8526  -5.7506  -5.6016
    -5.5525  -5.5290  -5.4285  -5.2203  -5.1866  -5.1399  -5.0587  -4.7162
     0.3393   0.4559   0.6800   0.7735   0.7881   0.8664   0.9401   0.9894
     1.1061   1.1380   1.2102   1.2881   1.3440   1.3758   1.4391   1.4919
     1.5435   1.5960   1.6511   1.7418   1.8085   1.8263   1.8805   1.9900
     2.0099   2.0726   2.1189   2.1557   2.2012   2.2447   2.2696   2.3017
     2.3250   2.3509   2.4791   2.5160   2.5460   2.6166   2.6355   2.6887
     2.7432   2.7498   2.7892   2.8040   2.8541   2.8733   2.9460   2.9666
     3.0120   3.0219   3.0954   3.1259   3.1845   3.2019   3.2104   3.2337
     3.3326   3.4039   3.4114   3.4699   3.5382   3.5485   3.5556   3.6155
     3.6831   3.7393   3.8240   3.8742   3.9736   3.9936   4.0282   4.0549
     4.1128   4.2396   4.2641   4.3326   4.3638   4.4133   4.4910   4.5238
     4.5662   4.5778   4.6491   4.8284   4.8935   5.0464   5.1018   5.1099
     5.1788   5.2079   5.2816   5.3760   5.4079   5.4471   5.4758   5.5054
     5.5496   5.6194   5.7038   5.7310   5.8206   5.9005   5.9308   6.0316
     6.1006   6.1862   6.2442   6.2638   6.3031   6.3782   6.4276   6.4788
     6.5053   6.5332   6.6050   6.7387   6.8437   6.8885   6.9737   7.0101
     7.1926   7.2778   7.3189   7.3485   7.4424   7.4970   7.5703   7.6235
     7.7171   7.7714   7.8025   7.9135   7.9837   8.0158   8.1048   8.1577
     8.2153   8.2340   8.3781   8.4572   8.4630

          k = 0.0000-0.4996-0.0454 ( 34712 PWs)   bands (ev):

    -7.9232  -7.4552  -7.1164  -7.0836  -6.9122  -6.8161  -6.7878  -6.7312
    -6.6528  -6.6103  -6.5756  -6.5466  -6.4991  -6.4088  -6.3782  -6.3140
    -6.2371  -6.1096  -6.0462  -5.9634  -5.9564  -5.8453  -5.7205  -5.6085
    -5.5570  -5.5306  -5.3755  -5.2213  -5.1894  -5.1452  -5.0702  -4.7195
     0.3648   0.6028   0.7374   0.7721   0.8164   0.8972   1.0280   1.0677
     1.1074   1.1456   1.1643   1.2926   1.3322   1.3641   1.4354   1.4724
     1.5432   1.5683   1.5931   1.7292   1.7809   1.8189   1.8554   1.9046
     2.0173   2.0714   2.1170   2.1491   2.1793   2.2043   2.2304   2.2699
     2.3335   2.3690   2.4433   2.5297   2.5500   2.5656   2.5842   2.6284
     2.6612   2.7001   2.7299   2.8002   2.8642   2.8713   2.8908   2.9413
     2.9693   3.0696   3.0866   3.1155   3.1291   3.1556   3.1980   3.2381
     3.2845   3.3061   3.3619   3.5117   3.5704   3.6055   3.6080   3.6674
     3.6886   3.7676   3.8041   3.8579   3.9270   4.0197   4.0495   4.0928
     4.1444   4.1821   4.2201   4.3290   4.3554   4.5396   4.6023   4.6634
     4.7073   4.7720   4.8644   4.9001   4.9230   4.9809   5.0616   5.0875
     5.1627   5.2038   5.2893   5.3444   5.3790   5.3930   5.5056   5.5220
     5.5945   5.6162   5.6485   5.7333   5.7962   5.8352   5.8569   5.9735
     6.0527   6.0849   6.1554   6.1747   6.3087   6.4186   6.4464   6.5210
     6.5579   6.6492   6.6659   6.7397   6.8102   6.9020   6.9187   6.9960
     7.0777   7.2047   7.3590   7.3940   7.4230   7.5581   7.5940   7.6552
     7.7007   7.7657   7.8812   7.9086   7.9756   8.0126   8.0634   8.1026
     8.1817   8.3028   8.3619   8.5018   8.5546

          k = 0.0000-0.4996-0.5207 ( 34772 PWs)   bands (ev):

    -7.8959  -7.4192  -7.2471  -7.1051  -6.8658  -6.7953  -6.7770  -6.7169
    -6.6883  -6.6461  -6.5882  -6.4679  -6.4565  -6.4372  -6.4080  -6.3121
    -6.2421  -6.1437  -6.0477  -5.9575  -5.9122  -5.8469  -5.7451  -5.5765
    -5.5490  -5.5211  -5.3802  -5.2199  -5.1893  -5.1577  -5.0559  -4.7200
     0.3092   0.5810   0.7019   0.7515   0.8633   0.9663   0.9962   1.0701
     1.1301   1.1727   1.1892   1.2441   1.3580   1.3790   1.4168   1.4969
     1.5246   1.5503   1.6330   1.6517   1.7387   1.7679   1.8556   1.8731
     1.9489   2.0190   2.0515   2.1324   2.1746   2.2677   2.2994   2.3147
     2.3405   2.4335   2.4500   2.4846   2.5122   2.5816   2.6144   2.6475
     2.6813   2.7274   2.7782   2.7907   2.8497   2.8763   2.8837   2.9135
     2.9551   3.0070   3.0301   3.0743   3.1790   3.2063   3.2223   3.2838
     3.2945   3.3621   3.3956   3.4276   3.4904   3.5553   3.6413   3.6763
     3.7312   3.8129   3.8455   3.9311   3.9769   4.0839   4.0964   4.1396
     4.1819   4.2357   4.3413   4.3967   4.4151   4.4893   4.4952   4.5804
     4.6653   4.7297   4.8021   4.8722   4.9040   4.9734   5.0135   5.0979
     5.1212   5.1883   5.2520   5.3487   5.3770   5.4391   5.4556   5.5060
     5.5354   5.6402   5.6551   5.7687   5.8289   5.8655   5.9036   6.0212
     6.0399   6.0836   6.1779   6.2404   6.3017   6.3445   6.3969   6.4358
     6.4953   6.5834   6.6938   6.7303   6.8506   6.8751   6.9755   7.0066
     7.1095   7.1779   7.2800   7.4142   7.4871   7.5719   7.5942   7.6605
     7.6833   7.7067   7.8554   7.9095   7.9231   8.0583   8.1584   8.1750
     8.2485   8.2710   8.3408   8.4517   8.5220

          k =-0.5000-0.0103 0.0063 ( 34758 PWs)   bands (ev):

    -7.9210  -7.4729  -7.1338  -7.0557  -6.9959  -6.8350  -6.7744  -6.7058
    -6.6403  -6.5956  -6.5258  -6.4993  -6.4632  -6.3889  -6.3784  -6.3102
    -6.2040  -6.1496  -6.1245  -6.0090  -5.9064  -5.8864  -5.7155  -5.6161
    -5.5677  -5.5324  -5.3567  -5.2031  -5.1941  -5.1523  -5.0729  -4.7176
     0.3216   0.4314   0.6383   0.8350   0.9108   0.9615   0.9924   1.0379
     1.0856   1.1164   1.1730   1.2924   1.3946   1.4534   1.4924   1.5190
     1.5627   1.6105   1.7055   1.7466   1.7746   1.8262   1.8804   1.9122
     1.9743   2.0143   2.0737   2.1309   2.1554   2.1979   2.2157   2.3172
     2.3512   2.4032   2.4238   2.4661   2.5317   2.5602   2.5908   2.6214
     2.6621   2.6864   2.7134   2.7718   2.8288   2.8474   2.8676   2.9287
     2.9940   3.0246   3.0571   3.0995   3.1381   3.1866   3.2423   3.2835
     3.3098   3.3742   3.4285   3.4669   3.4908   3.5109   3.6322   3.6708
     3.6876   3.7419   3.8190   3.8676   3.9029   3.9914   4.0512   4.0693
     4.1532   4.2213   4.2817   4.3598   4.4487   4.4858   4.5359   4.5922
     4.6879   4.7062   4.8436   4.9253   4.9551   5.0319   5.0697   5.0903
     5.1748   5.2159   5.2407   5.3415   5.3619   5.4519   5.4568   5.5403
     5.5706   5.6047   5.6848   5.7436   5.7909   5.8604   5.9504   6.0046
     6.0555   6.1196   6.1814   6.2266   6.3347   6.4367   6.4705   6.4911
     6.6198   6.6459   6.6905   6.7469   6.8143   6.8396   6.9441   7.0558
     7.1374   7.2610   7.2705   7.3463   7.4143   7.4871   7.6185   7.6528
     7.7102   7.7860   7.8051   7.8636   7.9086   8.0090   8.0979   8.1669
     8.2106   8.2425   8.3384   8.4036   8.4933

          k =-0.5000-0.0103-0.4690 ( 34726 PWs)   bands (ev):

    -7.8938  -7.4380  -7.2498  -7.0948  -6.9690  -6.7951  -6.7537  -6.7058
    -6.6625  -6.6123  -6.5235  -6.4897  -6.4538  -6.3969  -6.3703  -6.3440
    -6.2213  -6.1322  -6.1077  -5.9578  -5.9290  -5.8613  -5.7372  -5.6057
    -5.5629  -5.5192  -5.3600  -5.2148  -5.1848  -5.1643  -5.0650  -4.7143
     0.3087   0.4307   0.6417   0.8418   0.8897   0.9405   0.9727   1.0294
     1.1615   1.1805   1.2321   1.2902   1.3291   1.4216   1.4521   1.4738
     1.5360   1.6066   1.6375   1.7310   1.7408   1.8241   1.8399   1.9004
     1.9453   1.9963   2.0478   2.1363   2.1500   2.2026   2.2645   2.3046
     2.3260   2.3605   2.4285   2.4706   2.4932   2.5581   2.5807   2.6448
     2.6959   2.7196   2.7696   2.7803   2.8440   2.9043   2.9450   2.9603
     3.0150   3.0347   3.0711   3.1258   3.1393   3.1611   3.2229   3.2625
     3.3450   3.3976   3.4187   3.4512   3.4936   3.5221   3.6097   3.6722
     3.7299   3.7894   3.8693   3.9012   4.0002   4.0396   4.0642   4.1994
     4.2133   4.2615   4.2732   4.3290   4.4325   4.4921   4.5102   4.5387
     4.6116   4.6673   4.7713   4.8563   4.9217   5.0037   5.0295   5.0927
     5.1517   5.1661   5.2302   5.3181   5.3349   5.4257   5.4654   5.5723
     5.6075   5.6450   5.6727   5.7286   5.7891   5.8433   5.9153   6.0423
     6.0727   6.1761   6.2142   6.2830   6.3058   6.3722   6.4867   6.5218
     6.5640   6.6307   6.7095   6.7265   6.8285   6.9318   6.9617   7.0459
     7.1446   7.1941   7.2867   7.3932   7.3996   7.4473   7.5161   7.6096
     7.6783   7.7630   7.8197   7.9046   7.9495   8.0401   8.0594   8.1374
     8.2106   8.2609   8.2853   8.3766   8.5135

          k =-0.5000-0.5099-0.0392 ( 34744 PWs)   bands (ev):

    -7.8853  -7.3666  -7.2376  -7.1453  -7.0334  -6.8525  -6.7485  -6.6915
    -6.6330  -6.6134  -6.5452  -6.4948  -6.4593  -6.3999  -6.3685  -6.2951
    -6.2062  -6.1504  -6.0870  -6.0153  -5.9068  -5.8646  -5.6879  -5.6194
    -5.5546  -5.5104  -5.3841  -5.2210  -5.1805  -5.1549  -5.0690  -4.7140
     0.3779   0.6229   0.7027   0.8369   0.9500   0.9975   1.0231   1.0515
     1.1602   1.1987   1.2388   1.2781   1.3103   1.3634   1.4065   1.4919
     1.5340   1.5640   1.6226   1.6545   1.6708   1.7668   1.8177   1.8483
     1.8903   1.9291   1.9747   2.0209   2.0887   2.1982   2.2310   2.3115
     2.3239   2.3553   2.3769   2.4875   2.5300   2.5442   2.6204   2.6425
     2.6830   2.7600   2.7725   2.8412   2.8589   2.8999   2.9434   2.9597
     2.9927   2.9996   3.0081   3.0737   3.1337   3.1751   3.2162   3.2890
     3.3364   3.3909   3.4102   3.4671   3.5027   3.5573   3.5932   3.6797
     3.7885   3.8225   3.8661   3.9066   3.9549   3.9718   4.1121   4.1387
     4.1752   4.3003   4.3330   4.3415   4.4288   4.5219   4.6034   4.6361
     4.6958   4.7624   4.7789   4.8602   4.9108   4.9714   5.0574   5.0709
     5.1462   5.2020   5.2410   5.3129   5.3777   5.4226   5.4438   5.4803
     5.6341   5.6493   5.6642   5.7254   5.7806   5.8544   5.9018   5.9997
     6.1014   6.1318   6.2110   6.2135   6.3035   6.3614   6.4966   6.5166
     6.5807   6.6060   6.6523   6.7375   6.8523   6.8939   6.9391   6.9608
     7.1243   7.2081   7.3170   7.4037   7.4492   7.5279   7.5629   7.5800
     7.7007   7.7371   7.8467   7.9024   7.9875   8.0487   8.1159   8.1880
     8.2193   8.2502   8.4304   8.5284   8.5494

          k =-0.5000-0.5099-0.5144 ( 34794 PWs)   bands (ev):

    -7.8621  -7.3340  -7.2586  -7.1771  -7.0017  -6.8540  -6.8349  -6.7637
    -6.6750  -6.5729  -6.5306  -6.4968  -6.4145  -6.3898  -6.3656  -6.2816
    -6.2106  -6.1392  -6.0872  -5.9556  -5.9175  -5.8616  -5.7090  -5.6049
    -5.5577  -5.5037  -5.3799  -5.2077  -5.1934  -5.1579  -5.0644  -4.7177
     0.3368   0.5652   0.7411   0.8189   0.8925   1.0140   1.0536   1.0777
     1.1463   1.1888   1.2084   1.2887   1.3295   1.3941   1.4020   1.4751
     1.4824   1.5925   1.6465   1.6505   1.7153   1.7737   1.8081   1.8328
     1.9201   1.9516   1.9915   2.0869   2.0926   2.1416   2.1798   2.2569
     2.2822   2.3186   2.3429   2.4507   2.5030   2.5402   2.6108   2.6701
     2.6721   2.7200   2.7572   2.8009   2.8609   2.8958   2.8995   2.9410
     3.0165   3.0308   3.0686   3.1122   3.1727   3.2176   3.2467   3.3007
     3.3395   3.4056   3.4361   3.5145   3.5386   3.5718   3.6560   3.7429
     3.7729   3.8708   3.9007   3.9375   3.9625   4.0444   4.0786   4.2068
     4.2331   4.2861   4.3446   4.3962   4.4528   4.4974   4.5037   4.5699
     4.6250   4.7322   4.8000   4.8201   4.8576   4.8901   5.0114   5.0769
     5.1148   5.1531   5.2152   5.2725   5.3855   5.4292   5.4560   5.5362
     5.6134   5.6341   5.6595   5.7385   5.8101   5.8798   5.9941   6.0172
     6.0629   6.0908   6.2011   6.2219   6.3143   6.3920   6.4925   6.5333
     6.6339   6.6433   6.7093   6.7702   6.8193   6.8721   6.9478   7.0016
     7.1142   7.1203   7.2513   7.3985   7.4425   7.5049   7.5243   7.6023
     7.7296   7.7693   7.8317   7.9081   7.9259   8.0177   8.0801   8.1216
     8.2288   8.2668   8.3544   8.4490   8.5450

     the Fermi energy is     6.5345 ev

!    total energy              =   -1125.68501985 Ry
     Harris-Foulkes estimate   =   -1125.68502017 Ry
     estimated scf accuracy    <       0.00000041 Ry

     The total energy is the sum of the following terms:

     one-electron contribution =     -22.37866907 Ry
     hartree contribution      =     174.29725479 Ry
     xc contribution           =    -444.21090136 Ry
     ewald contribution        =    -833.39136075 Ry
     smearing contrib. (-TS)   =      -0.00134346 Ry

     convergence has been achieved in  14 iterations

     Forces acting on atoms (cartesian axes, Ry/au):

     atom    1 type  1   force =    -0.01439813    0.05901939    0.03462831
     atom    2 type  1   force =     0.02668389   -0.01362274    0.00958609
     atom    3 type  1   force =    -0.02517948    0.06717609    0.01914412
     atom    4 type  1   force =    -0.01108259   -0.00423219    0.00019705
     atom    5 type  1   force =     0.03076703    0.00170115    0.04727177
     atom    6 type  1   force =     0.08008073    0.02912377    0.00567474
     atom    7 type  1   force =    -0.07850801    0.00861158   -0.00783897
     atom    8 type  1   force =     0.02490477   -0.00787507    0.02185456
     atom    9 type  1   force =    -0.01260924   -0.04901620    0.05463951
     atom   10 type  1   force =    -0.02845971    0.01666096   -0.05714194
     atom   11 type  1   force =    -0.02300318   -0.00805185    0.04726976
     atom   12 type  1   force =    -0.07346135    0.02022757   -0.00292775
     atom   13 type  1   force =    -0.00640346    0.02515957   -0.03349059
     atom   14 type  1   force =     0.00186134    0.02903924   -0.03725414
     atom   15 type  1   force =    -0.02206935   -0.02478518   -0.02037502
     atom   16 type  1   force =    -0.00208475   -0.03277011    0.01494189
     atom   17 type  2   force =     0.01080648   -0.00201284    0.00454559
     atom   18 type  2   force =     0.03089467   -0.01594610   -0.02176061
     atom   19 type  2   force =    -0.00259860   -0.02574051   -0.02946365
     atom   20 type  2   force =     0.00314378    0.00162733    0.02551242
     atom   21 type  2   force =     0.00970687   -0.00549564   -0.00259653
     atom   22 type  2   force =     0.01054660   -0.00891988   -0.00099676
     atom   23 type  2   force =    -0.01001737   -0.00071511   -0.02787501
     atom   24 type  2   force =     0.03705752   -0.00556032    0.02389375
     atom   25 type  2   force =     0.01202003   -0.01584849   -0.02700119
     atom   26 type  2   force =    -0.00752475   -0.02371125    0.01782609
     atom   27 type  2   force =    -0.02725473    0.01972233   -0.00403598
     atom   28 type  2   force =    -0.01154685    0.00273078    0.04957547
     atom   29 type  2   force =     0.02546721   -0.00825184   -0.01176151
     atom   30 type  2   force =    -0.03753149   -0.03592992    0.00747238
     atom   31 type  2   force =     0.00216347   -0.01299562   -0.01625977
     atom   32 type  2   force =    -0.00259265   -0.01895089   -0.01007878
     atom   33 type  2   force =     0.03792952   -0.00430138   -0.03257059
     atom   34 type  2   force =     0.02393347   -0.01981029   -0.04871959
     atom   35 type  2   force =     0.02764972    0.00922884    0.00708874
     atom   36 type  2   force =     0.01899744    0.00260687    0.00510836
     atom   37 type  2   force =     0.00618422   -0.00864162   -0.03340952
     atom   38 type  2   force =    -0.00685868    0.05946569    0.01936233
     atom   39 type  2   force =    -0.00883121    0.01974777   -0.00483503
     atom   40 type  2   force =    -0.00379243   -0.02921774   -0.02286379
     atom   41 type  2   force =     0.00458365   -0.01057718    0.02085917
     atom   42 type  2   force =    -0.00647044    0.00466430    0.01085088
     atom   43 type  2   force =    -0.02527205    0.00220301    0.02235067
     atom   44 type  2   force =     0.01402516    0.00748221   -0.00901274
     atom   45 type  2   force =    -0.00589822   -0.00921753   -0.00070761
     atom   46 type  2   force =    -0.00933861   -0.00784860   -0.01577148
     atom   47 type  2   force =     0.03060846    0.00397767    0.01460849
     atom   48 type  2   force =    -0.00722870    0.01986993   -0.00551362

     Total force =     0.301649     Total SCF correction =     0.001239
 
     init_run     :      8.41s CPU      8.64s WALL (       1 calls)
     electrons    :    227.91s CPU    232.37s WALL (       1 calls)
     forces       :      4.94s CPU      5.11s WALL (       1 calls)

     Called by init_run:
     wfcinit      :      6.30s CPU      6.42s WALL (       1 calls)
     potinit      :      0.52s CPU      0.53s WALL (       1 calls)
     hinit0       :      0.72s CPU      0.74s WALL (       1 calls)

     Called by electrons:
     c_bands      :    192.03s CPU    194.51s WALL (      14 calls)
     sum_band     :     29.36s CPU     30.78s WALL (      14 calls)
     v_of_rho     :      1.16s CPU      1.20s WALL (      15 calls)
     newd         :      4.53s CPU      5.03s WALL (      15 calls)
     mix_rho      :      1.01s CPU      1.07s WALL (      14 calls)

     Called by c_bands:
     init_us_2    :      4.09s CPU      4.12s WALL (     240 calls)
     cegterg      :    179.33s CPU    181.76s WALL (     112 calls)

     Called by sum_band:
     sum_band:bec :      0.34s CPU      0.34s WALL (     112 calls)
     addusdens    :      7.19s CPU      8.15s WALL (      14 calls)

     Called by *egterg:
     h_psi        :     91.76s CPU     93.28s WALL (     463 calls)
     s_psi        :     19.62s CPU     19.67s WALL (     463 calls)
     g_psi        :      0.49s CPU      0.50s WALL (     343 calls)
     cdiaghg      :     36.91s CPU     37.59s WALL (     455 calls)

     Called by h_psi:
     h_psi:pot    :     90.77s CPU     92.27s WALL (     463 calls)
     h_psi:calbec :     21.69s CPU     22.35s WALL (     463 calls)
     vloc_psi     :     48.14s CPU     48.93s WALL (     463 calls)
     add_vuspsi   :     20.92s CPU     20.99s WALL (     463 calls)

     General routines
     calbec       :     32.24s CPU     33.22s WALL (     607 calls)
     fft          :      1.23s CPU      1.29s WALL (     204 calls)
     ffts         :      0.43s CPU      0.48s WALL (     346 calls)
     fftw         :     54.17s CPU     55.06s WALL (  114632 calls)
     interpolate  :      0.11s CPU      0.12s WALL (      15 calls)
 
     Parallel routines
     fft_scatt_xy :      5.01s CPU      5.10s WALL (  115182 calls)
     fft_scatt_yz :     26.72s CPU     27.24s WALL (  115182 calls)
 
     PWSCF        :   4m 1.96s CPU   4m 7.13s WALL

 
   This run was terminated on:  22:48:23  24Dec2021            

=------------------------------------------------------------------------------=
   JOB DONE.
=------------------------------------------------------------------------------=
