
     Program PWSCF v.6.4 starts on 24Dec2021 at 23:34:44 

     This program is part of the open-source Quantum ESPRESSO suite
     for quantum simulation of materials; please cite
         "P. Giannozzi et al., J. Phys.:Condens. Matter 21 395502 (2009);
         "P. Giannozzi et al., J. Phys.:Condens. Matter 29 465901 (2017);
          URL http://www.quantum-espresso.org", 
     in publications or presentations arising from this work. More details at
     http://www.quantum-espresso.org/quote

     Parallel version (MPI), running on    40 processors

     MPI processes distributed on     1 nodes
     R & G space division:  proc/nbgrp/npool/nimage =      40
     Waiting for input...
     Reading input from standard input
Warning: card    &IONS ignored
Warning: card      ION_DYNAMICS = 'BFGS' ignored
Warning: card   / ignored
Warning: card    &CELL ignored
Warning: card      CELL_DYNAMICS = 'BFGS', ignored
Warning: card    / ignored

     Current dimensions of program PWSCF are:
     Max number of different atomic species (ntypx) = 10
     Max number of k-points (npk) =  40000
     Max angular momentum in pseudopotentials (lmaxx) =  3

     Subspace diagonalization in iterative solution of the eigenvalue problem:
     one sub-group per band group will be used
     scalapack distributed-memory algorithm (size of sub-group:  4*  4 procs)

 
     Parallelization info
     --------------------
     sticks:   dense  smooth     PW     G-vecs:    dense   smooth      PW
     Min         247     123     33                19299     6823     972
     Max         248     124     34                19303     6826     977
     Sum        9901    4937   1355               772005   272971   38983
 


     bravais-lattice index     =            0
     lattice parameter (alat)  =      18.2651  a.u.
     unit-cell volume          =    6692.2482 (a.u.)^3
     number of atoms/cell      =           48
     number of atomic types    =            2
     number of electrons       =       288.00
     number of Kohn-Sham states=          173
     kinetic-energy cutoff     =      45.0000  Ry
     charge density cutoff     =     360.0000  Ry
     convergence threshold     =      1.0E-06
     mixing beta               =       0.7000
     number of iterations used =            8  local-TF  mixing
     Exchange-correlation      = SLA PW GGX GGC ( 1  4  2  2 0 0)

     celldm(1)=  18.265124  celldm(2)=   0.000000  celldm(3)=   0.000000
     celldm(4)=   0.000000  celldm(5)=   0.000000  celldm(6)=   0.000000

     crystal axes: (cart. coord. in units of alat)
               a(1) = (   1.000000   0.000000   0.000000 )  
               a(2) = (  -0.049794   1.034184   0.000000 )  
               a(3) = (  -0.055442  -0.070439   1.061956 )  

     reciprocal axes: (cart. coord. in units 2 pi/alat)
               b(1) = (  1.000000  0.048148  0.055401 )  
               b(2) = (  0.000000  0.966946  0.064137 )  
               b(3) = (  0.000000  0.000000  0.941659 )  


     PseudoPot. # 1 for Mo read from file:
     ~/pseudo/Mo.pw91-n-van.UPF
     MD5 check sum: Not computed, couldn't open file
     Pseudo is Ultrasoft + core correction, Zval =  6.0
     Generated by new atomic code, or converted to UPF format
     Using radial grid of  965 points,  3 beta functions with: 
                l(1) =   1
                l(2) =   2
                l(3) =   2
     Q(r) pseudized with  8 coefficients,  rinner =    1.000   1.000   1.000
                                                       1.200   1.200

     PseudoPot. # 2 for S  read from file:
     ~/pseudo/S.pw91-van_ak.UPF
     MD5 check sum: Not computed, couldn't open file
     Pseudo is Ultrasoft, Zval =  6.0
     Generated by new atomic code, or converted to UPF format
     Using radial grid of  811 points,  6 beta functions with: 
                l(1) =   0
                l(2) =   0
                l(3) =   1
                l(4) =   1
                l(5) =   2
                l(6) =   2
     Q(r) pseudized with  8 coefficients,  rinner =    1.100   1.100   1.100
                                                       1.100   1.100

     atomic species   valence    mass     pseudopotential
        Mo             6.00    95.50000     Mo( 1.00)
        S              6.00    32.06500     S ( 1.00)

     No symmetry found



   Cartesian axes

     site n.     atom                  positions (alat units)
         1           Mo  tau(   1) = (   0.9436102   0.7483983   0.2813271  )
         2           Mo  tau(   2) = (   0.5662978   0.6458438   0.1163474  )
         3           Mo  tau(   3) = (   0.7914850   0.8855136   0.0663166  )
         4           Mo  tau(   4) = (   0.5297315   0.8999523   0.4024335  )
         5           Mo  tau(   5) = (   0.3373992   0.1183609   0.3642850  )
         6           Mo  tau(   6) = (   0.1417713   0.1336197   0.1484673  )
         7           Mo  tau(   7) = (   0.3416949   0.3537338   0.1474929  )
         8           Mo  tau(   8) = (   0.1392078   0.3467549   0.3510533  )
         9           Mo  tau(   9) = (   0.8069249  -0.0068018   0.9227380  )
        10           Mo  tau(  10) = (   0.5781149   0.0569447   0.6410386  )
        11           Mo  tau(  11) = (   0.8034079   0.2350171   0.7550236  )
        12           Mo  tau(  12) = (   0.5458807   0.2456857   0.8813695  )
        13           Mo  tau(  13) = (   0.2460573   0.7159050   1.0386849  )
        14           Mo  tau(  14) = (   0.1175030   0.6160603   0.7451511  )
        15           Mo  tau(  15) = (   0.2986937   0.9247946   0.5871137  )
        16           Mo  tau(  16) = (  -0.0050844   0.8389064   0.9268480  )
        17           S   tau(  17) = (   0.8374448   0.6408052   0.0922074  )
        18           S   tau(  18) = (   0.7625153   0.2495299   0.9885481  )
        19           S   tau(  19) = (   0.5992664   0.6545284   0.3634116  )
        20           S   tau(  20) = (   0.5981669   0.1107494   0.3913653  )
        21           S   tau(  21) = (   0.8846322   0.0899742   0.1125594  )
        22           S   tau(  22) = (   0.6006765   0.3847373   0.1594636  )
        23           S   tau(  23) = (   0.9390870   0.4943291   0.3731447  )
        24           S   tau(  24) = (   0.6004636   0.3147087   0.6577321  )
        25           S   tau(  25) = (   0.3835148   0.1088231   0.1161267  )
        26           S   tau(  26) = (   0.2464273   0.9211806   0.8945390  )
        27           S   tau(  27) = (   0.0878090   0.1137603   0.3864150  )
        28           S   tau(  28) = (   0.1807390   0.4389703   0.5796149  )
        29           S   tau(  29) = (   0.3261446   0.6147449   0.1570757  )
        30           S   tau(  30) = (   0.0836828   0.9048096   0.1245710  )
        31           S   tau(  31) = (   0.2944049   0.9015795   0.3493099  )
        32           S   tau(  32) = (   0.0788812   0.8526468   0.6838739  )
        33           S   tau(  33) = (   0.8315457   0.0160494   0.6702563  )
        34           S   tau(  34) = (   0.7782964   0.9175951   0.3300069  )
        35           S   tau(  35) = (   0.5547244   0.0002739   0.8916104  )
        36           S   tau(  36) = (   0.5578870   0.4948393   0.9469779  )
        37           S   tau(  37) = (   0.9394004   0.6532395   0.5174738  )
        38           S   tau(  38) = (   0.5181935   0.8375636   0.6338299  )
        39           S   tau(  39) = (   0.7552478   0.7797251   0.8806656  )
        40           S   tau(  40) = (   0.5370421   0.8960120   0.0944093  )
        41           S   tau(  41) = (   0.3423223   0.6274901   0.8346250  )
        42           S   tau(  42) = (   0.3845938   0.3694628   0.3914917  )
        43           S   tau(  43) = (   0.0452767   0.5926872   0.9733155  )
        44           S   tau(  44) = (   0.0489888   0.0569853   0.9473467  )
        45           S   tau(  45) = (   0.3327413   0.1245445   0.6241286  )
        46           S   tau(  46) = (  -0.0223286   0.3964976   0.7409725  )
        47           S   tau(  47) = (   0.3168624   0.2983650   0.9550505  )
        48           S   tau(  48) = (   0.0947341   0.3732108   0.1083495  )

     number of k points=     8  Marzari-Vanderbilt smearing, width (Ry)=  0.0200
                       cart. coord. in units 2pi/alat
        k(    1) = (   0.0000000   0.0000000   0.0000000), wk =   0.2500000
        k(    2) = (   0.0000000   0.0000000  -0.4708294), wk =   0.2500000
        k(    3) = (   0.0000000  -0.4834731  -0.0320684), wk =   0.2500000
        k(    4) = (   0.0000000  -0.4834731  -0.5028978), wk =   0.2500000
        k(    5) = (  -0.5000000  -0.0240741  -0.0277004), wk =   0.2500000
        k(    6) = (  -0.5000000  -0.0240741  -0.4985298), wk =   0.2500000
        k(    7) = (  -0.5000000  -0.5075472  -0.0597687), wk =   0.2500000
        k(    8) = (  -0.5000000  -0.5075472  -0.5305982), wk =   0.2500000

     Dense  grid:   772005 G-vectors     FFT dimensions: ( 120, 120, 120)

     Smooth grid:   272971 G-vectors     FFT dimensions: (  80,  81,  90)

     Estimated max dynamical RAM per process >     147.69 MB

     Estimated total dynamical RAM >       5.77 GB

     Initial potential from superposition of free atoms

     starting charge  287.97477, renormalised to  288.00000
     Starting wfcs are  272 randomized atomic wfcs

     total cpu time spent up to now is        8.5 secs

     Self-consistent Calculation

     iteration #  1     ecut=    45.00 Ry     beta= 0.70
     Davidson diagonalization with overlap
     ethr =  1.00E-02,  avg # of iterations =  2.0

     total cpu time spent up to now is       23.9 secs

     total energy              =   -1123.54609378 Ry
     Harris-Foulkes estimate   =   -1127.45795635 Ry
     estimated scf accuracy    <      10.67360388 Ry

     iteration #  2     ecut=    45.00 Ry     beta= 0.70
     Davidson diagonalization with overlap
     ethr =  3.71E-03,  avg # of iterations =  2.0

     total cpu time spent up to now is       38.4 secs

     total energy              =   -1124.99040602 Ry
     Harris-Foulkes estimate   =   -1126.18306167 Ry
     estimated scf accuracy    <       6.80723865 Ry

     iteration #  3     ecut=    45.00 Ry     beta= 0.70
     Davidson diagonalization with overlap
     ethr =  2.36E-03,  avg # of iterations =  1.1

     total cpu time spent up to now is       49.4 secs

     total energy              =   -1125.56018624 Ry
     Harris-Foulkes estimate   =   -1125.73087380 Ry
     estimated scf accuracy    <       1.58139256 Ry

     iteration #  4     ecut=    45.00 Ry     beta= 0.70
     Davidson diagonalization with overlap
     ethr =  5.49E-04,  avg # of iterations =  1.4

     total cpu time spent up to now is       60.5 secs

     total energy              =   -1125.61970263 Ry
     Harris-Foulkes estimate   =   -1125.65901274 Ry
     estimated scf accuracy    <       0.19122735 Ry

     iteration #  5     ecut=    45.00 Ry     beta= 0.70
     Davidson diagonalization with overlap
     ethr =  6.64E-05,  avg # of iterations =  8.0

     total cpu time spent up to now is       81.6 secs

     total energy              =   -1125.63877572 Ry
     Harris-Foulkes estimate   =   -1125.65957847 Ry
     estimated scf accuracy    <       0.10624277 Ry

     iteration #  6     ecut=    45.00 Ry     beta= 0.70
     Davidson diagonalization with overlap
     ethr =  3.69E-05,  avg # of iterations =  2.6

     total cpu time spent up to now is       93.8 secs

     total energy              =   -1125.64590329 Ry
     Harris-Foulkes estimate   =   -1125.65253659 Ry
     estimated scf accuracy    <       0.06620150 Ry

     iteration #  7     ecut=    45.00 Ry     beta= 0.70
     Davidson diagonalization with overlap
     ethr =  2.30E-05,  avg # of iterations =  1.0

     total cpu time spent up to now is      104.7 secs

     total energy              =   -1125.64926304 Ry
     Harris-Foulkes estimate   =   -1125.65037004 Ry
     estimated scf accuracy    <       0.01103358 Ry

     iteration #  8     ecut=    45.00 Ry     beta= 0.70
     Davidson diagonalization with overlap
     ethr =  3.83E-06,  avg # of iterations = 12.5

     total cpu time spent up to now is      126.4 secs

     total energy              =   -1125.64984884 Ry
     Harris-Foulkes estimate   =   -1125.65024684 Ry
     estimated scf accuracy    <       0.00237520 Ry

     iteration #  9     ecut=    45.00 Ry     beta= 0.70
     Davidson diagonalization with overlap
     ethr =  8.25E-07,  avg # of iterations =  4.2

     total cpu time spent up to now is      140.6 secs

     total energy              =   -1125.65010284 Ry
     Harris-Foulkes estimate   =   -1125.65026456 Ry
     estimated scf accuracy    <       0.00183404 Ry

     iteration # 10     ecut=    45.00 Ry     beta= 0.70
     Davidson diagonalization with overlap
     ethr =  6.37E-07,  avg # of iterations =  1.0

     total cpu time spent up to now is      151.5 secs

     total energy              =   -1125.65016422 Ry
     Harris-Foulkes estimate   =   -1125.65020565 Ry
     estimated scf accuracy    <       0.00037883 Ry

     iteration # 11     ecut=    45.00 Ry     beta= 0.70
     Davidson diagonalization with overlap
     ethr =  1.32E-07,  avg # of iterations =  3.0

     total cpu time spent up to now is      164.4 secs

     total energy              =   -1125.65020351 Ry
     Harris-Foulkes estimate   =   -1125.65021429 Ry
     estimated scf accuracy    <       0.00009424 Ry

     iteration # 12     ecut=    45.00 Ry     beta= 0.70
     Davidson diagonalization with overlap
     ethr =  3.27E-08,  avg # of iterations =  3.1

     total cpu time spent up to now is      178.2 secs

     total energy              =   -1125.65021700 Ry
     Harris-Foulkes estimate   =   -1125.65021874 Ry
     estimated scf accuracy    <       0.00001196 Ry

     iteration # 13     ecut=    45.00 Ry     beta= 0.70
     Davidson diagonalization with overlap
     ethr =  4.15E-09,  avg # of iterations =  3.6

     total cpu time spent up to now is      193.8 secs

     total energy              =   -1125.65021898 Ry
     Harris-Foulkes estimate   =   -1125.65021936 Ry
     estimated scf accuracy    <       0.00000322 Ry

     iteration # 14     ecut=    45.00 Ry     beta= 0.70
     Davidson diagonalization with overlap
     ethr =  1.12E-09,  avg # of iterations =  3.0

     total cpu time spent up to now is      207.3 secs

     total energy              =   -1125.65021938 Ry
     Harris-Foulkes estimate   =   -1125.65021951 Ry
     estimated scf accuracy    <       0.00000142 Ry

     iteration # 15     ecut=    45.00 Ry     beta= 0.70
     Davidson diagonalization with overlap
     ethr =  4.95E-10,  avg # of iterations =  2.0

     total cpu time spent up to now is      218.9 secs

     End of self-consistent calculation

          k = 0.0000 0.0000 0.0000 ( 34111 PWs)   bands (ev):

    -8.5540  -7.5664  -7.0099  -6.9600  -6.9082  -6.8693  -6.6406  -6.5407
    -6.5011  -6.4222  -6.3792  -6.3157  -6.2697  -6.2314  -6.1409  -6.1377
    -6.0816  -6.0066  -5.9765  -5.9016  -5.8617  -5.7931  -5.7451  -5.6657
    -5.5397  -5.4446  -5.1093  -5.0577  -4.9560  -4.8486  -4.6464  -4.4165
     0.5440   0.6711   0.7822   0.7976   0.8777   0.9653   1.0870   1.2404
     1.3153   1.3436   1.3884   1.4617   1.5441   1.6435   1.6665   1.7035
     1.7373   1.8012   1.8760   1.9305   1.9448   1.9960   2.0386   2.0908
     2.1437   2.2032   2.2306   2.2635   2.3110   2.3482   2.4545   2.4793
     2.5330   2.5738   2.5795   2.6363   2.6685   2.7068   2.7508   2.7816
     2.8382   2.8844   2.9497   2.9851   3.0079   3.0806   3.1059   3.1323
     3.1583   3.2648   3.2857   3.3156   3.3442   3.3520   3.4078   3.4379
     3.4634   3.5456   3.5650   3.6284   3.6467   3.6916   3.7269   3.8063
     3.8456   3.9262   3.9418   4.0216   4.0493   4.1234   4.1559   4.2181
     4.2479   4.3132   4.3785   4.4662   4.5616   4.6630   4.6851   4.7458
     4.9070   4.9658   5.0201   5.0617   5.1273   5.1673   5.2163   5.2897
     5.3208   5.3699   5.4152   5.5413   5.6001   5.6395   5.6939   5.8485
     5.9280   6.0465   6.0896   6.1575   6.1833   6.2214   6.2949   6.3839
     6.4313   6.5117   6.5627   6.6407   6.7364   6.8191   6.9007   6.9285
     7.0247   7.0851   7.1233   7.2270   7.3235   7.3778   7.3897   7.4783
     7.5672   7.6104   7.7125   7.8183   7.8537   7.9042   7.9835   8.0723
     8.1039   8.1349   8.1906   8.2094   8.3976   8.4371   8.4651   8.5188
     8.5419   8.6791   8.7126   8.8737   8.8942

          k = 0.0000 0.0000-0.4708 ( 34162 PWs)   bands (ev):

    -8.5498  -7.4653  -7.3081  -6.9067  -6.8855  -6.7082  -6.6243  -6.5425
    -6.5120  -6.4390  -6.3980  -6.3498  -6.2994  -6.2082  -6.1539  -6.1374
    -6.1002  -6.0015  -5.9597  -5.8880  -5.8276  -5.7891  -5.7692  -5.6886
    -5.5142  -5.4196  -5.1067  -5.0593  -4.9768  -4.8436  -4.6361  -4.4170
     0.6157   0.7648   0.7754   0.8926   0.9382   0.9749   1.0560   1.1137
     1.2224   1.3406   1.3934   1.4450   1.5534   1.5858   1.6104   1.6607
     1.6797   1.7956   1.8682   1.8770   1.9323   1.9668   2.0133   2.0505
     2.1001   2.1819   2.2198   2.2799   2.2936   2.3376   2.3927   2.4259
     2.4666   2.5075   2.6021   2.6319   2.6665   2.7440   2.7721   2.7906
     2.8697   2.8884   2.9642   2.9937   3.0280   3.0570   3.1271   3.1522
     3.1755   3.2842   3.3268   3.3471   3.3887   3.4130   3.4486   3.5155
     3.5459   3.5671   3.6112   3.6590   3.6877   3.7150   3.7432   3.8177
     3.9051   3.9198   3.9647   4.0344   4.0982   4.1642   4.1972   4.2250
     4.2747   4.3708   4.3939   4.4587   4.5048   4.5748   4.6955   4.7929
     4.8698   4.9006   4.9380   5.0199   5.0640   5.1813   5.2623   5.2778
     5.3556   5.4152   5.4711   5.4834   5.5804   5.6355   5.8134   5.8299
     5.8814   6.0065   6.0233   6.1110   6.2375   6.2522   6.2932   6.3472
     6.4013   6.5403   6.5873   6.6285   6.7076   6.7506   6.7883   6.9409
     7.0242   7.1062   7.1675   7.2024   7.2681   7.3230   7.3495   7.4976
     7.5290   7.6411   7.6803   7.7470   7.8287   7.9187   7.9674   8.0489
     8.0825   8.1287   8.2803   8.3176   8.4061   8.4178   8.4988   8.5577
     8.6647   8.7306   8.7971   8.8597   8.8756

          k = 0.0000-0.4835-0.0321 ( 34110 PWs)   bands (ev):

    -8.5508  -7.5077  -7.1661  -6.9741  -6.8631  -6.7870  -6.6315  -6.6013
    -6.4528  -6.4377  -6.3979  -6.3224  -6.2998  -6.2676  -6.1814  -6.1019
    -6.0310  -6.0000  -5.9641  -5.8982  -5.8641  -5.8285  -5.7514  -5.6488
    -5.5294  -5.3532  -5.1738  -5.0502  -4.9418  -4.8448  -4.6402  -4.4189
     0.5187   0.6353   0.8383   0.9159   1.0054   1.0505   1.1277   1.1479
     1.2110   1.2756   1.4087   1.4696   1.5514   1.6108   1.6631   1.7039
     1.7514   1.8018   1.8359   1.8625   1.9192   1.9688   2.0345   2.0677
     2.1050   2.1827   2.2049   2.2456   2.3056   2.3494   2.3798   2.4261
     2.4788   2.4958   2.5750   2.6136   2.6606   2.7036   2.7469   2.7847
     2.8056   2.9010   2.9708   2.9914   3.0453   3.0649   3.1024   3.1351
     3.1898   3.1916   3.2134   3.2809   3.3377   3.3477   3.4497   3.4620
     3.4662   3.5200   3.5777   3.6356   3.6768   3.6926   3.7811   3.8294
     3.9072   4.0247   4.0464   4.0738   4.0912   4.1509   4.2602   4.3062
     4.3193   4.3692   4.4743   4.5159   4.5561   4.6633   4.7228   4.7821
     4.8293   4.8898   4.9113   4.9853   5.0465   5.1407   5.2070   5.3256
     5.3626   5.3983   5.4591   5.4995   5.5615   5.6461   5.7461   5.8155
     5.8929   5.9272   6.0233   6.1419   6.2546   6.3223   6.3818   6.4164
     6.5020   6.5390   6.6569   6.7015   6.7186   6.7783   6.8031   6.9124
     6.9742   7.0162   7.1001   7.1961   7.2805   7.2999   7.4460   7.4872
     7.5129   7.6632   7.7131   7.8342   7.8799   7.8983   7.9990   8.0196
     8.0770   8.0883   8.1648   8.2551   8.3018   8.3665   8.5331   8.5390
     8.6115   8.6355   8.7576   8.8000   8.8236

          k = 0.0000-0.4835-0.5029 ( 34112 PWs)   bands (ev):

    -8.5479  -7.3810  -7.2991  -7.0618  -6.9071  -6.7033  -6.6580  -6.5697
    -6.4566  -6.4192  -6.3475  -6.3291  -6.2700  -6.2479  -6.2171  -6.1314
    -6.0791  -5.9910  -5.9476  -5.9139  -5.8524  -5.8184  -5.7512  -5.6439
    -5.4960  -5.3497  -5.1826  -5.0398  -4.9721  -4.8335  -4.6333  -4.4176
     0.6040   0.6871   0.8355   0.9303   0.9580   1.0599   1.1836   1.2258
     1.2318   1.2766   1.3221   1.3971   1.4874   1.5467   1.6106   1.6876
     1.6968   1.7254   1.7835   1.8387   1.8896   1.9156   1.9223   2.0785
     2.0996   2.1234   2.2123   2.2233   2.3175   2.3882   2.4159   2.4596
     2.4875   2.5904   2.5957   2.6208   2.7298   2.7425   2.7837   2.8242
     2.8424   2.9125   2.9312   2.9879   3.0191   3.0344   3.1151   3.1284
     3.1679   3.2193   3.2386   3.2829   3.3371   3.3546   3.4191   3.4819
     3.5084   3.5465   3.5841   3.6261   3.7106   3.7738   3.8124   3.8634
     3.8856   3.9652   4.0276   4.0795   4.1300   4.1560   4.2323   4.2606
     4.3107   4.3819   4.4346   4.5582   4.6070   4.6378   4.7544   4.8073
     4.8434   4.9245   4.9604   5.0185   5.0830   5.1614   5.1970   5.2740
     5.3370   5.4613   5.5161   5.5445   5.6322   5.6445   5.7207   5.7678
     5.8509   5.9050   6.0002   6.1290   6.1873   6.2724   6.2990   6.3902
     6.4968   6.5206   6.5946   6.6566   6.7201   6.7594   6.8716   6.9084
     7.0111   7.0707   7.1019   7.2207   7.2785   7.3006   7.3711   7.4726
     7.5506   7.6404   7.6793   7.7568   7.8070   7.8758   7.9878   8.0805
     8.1090   8.1745   8.2058   8.2799   8.3334   8.4340   8.4881   8.6328
     8.6699   8.7111   8.7764   8.8048   8.8476

          k =-0.5000-0.0241-0.0277 ( 34100 PWs)   bands (ev):

    -8.5519  -7.4431  -7.2407  -6.9892  -6.8393  -6.7465  -6.6745  -6.6333
    -6.5026  -6.4644  -6.4114  -6.2979  -6.2283  -6.1981  -6.1609  -6.0978
    -6.0745  -6.0082  -5.9877  -5.8802  -5.8127  -5.7987  -5.7573  -5.7061
    -5.5789  -5.3877  -5.1068  -5.0264  -4.9568  -4.8696  -4.6511  -4.4013
     0.5900   0.7513   0.8479   0.9483   0.9986   1.0622   1.0888   1.0906
     1.1840   1.2818   1.3411   1.4864   1.5543   1.6265   1.6759   1.6869
     1.7223   1.8011   1.8244   1.8735   1.9455   1.9659   2.0140   2.0524
     2.1520   2.1629   2.2118   2.2265   2.2887   2.3653   2.3791   2.4131
     2.4502   2.4694   2.5454   2.5928   2.6896   2.7041   2.7497   2.7785
     2.8233   2.8457   2.9582   2.9714   3.0155   3.0577   3.0918   3.1421
     3.1888   3.2148   3.2433   3.2814   3.3213   3.4170   3.4518   3.4992
     3.5544   3.5857   3.6056   3.6158   3.6985   3.7232   3.7777   3.8233
     3.8685   3.9592   3.9894   4.0563   4.0871   4.1091   4.1794   4.2764
     4.3031   4.3405   4.3755   4.4361   4.4912   4.6219   4.7140   4.7392
     4.8387   4.9395   4.9957   5.0494   5.1159   5.1887   5.1905   5.2857
     5.3084   5.4311   5.4956   5.5419   5.5724   5.6617   5.8442   5.9191
     5.9855   6.0089   6.0883   6.1000   6.1783   6.2869   6.3021   6.3222
     6.4398   6.5083   6.5535   6.6843   6.7255   6.8328   6.8939   6.9201
     7.0510   7.0885   7.1111   7.1655   7.2769   7.3207   7.4951   7.5206
     7.5791   7.6387   7.7475   7.7664   7.8909   7.9274   7.9875   8.0229
     8.0851   8.0955   8.1880   8.2243   8.2932   8.4545   8.4855   8.5232
     8.5998   8.6437   8.7692   8.7965   8.8350

          k =-0.5000-0.0241-0.4985 ( 34128 PWs)   bands (ev):

    -8.5486  -7.3133  -7.3012  -7.1208  -6.8490  -6.8424  -6.6010  -6.5520
    -6.5187  -6.4337  -6.3985  -6.2795  -6.2563  -6.2189  -6.1801  -6.1048
    -6.0701  -6.0188  -5.9937  -5.8345  -5.8316  -5.7843  -5.7369  -5.7193
    -5.5870  -5.3663  -5.0826  -5.0379  -4.9767  -4.8565  -4.6451  -4.4112
     0.6422   0.7231   0.8135   0.8845   1.0194   1.0944   1.1287   1.1938
     1.2451   1.3813   1.3906   1.4295   1.5106   1.5290   1.5834   1.6435
     1.6991   1.7735   1.7986   1.8618   1.9089   1.9469   2.0119   2.0388
     2.1124   2.1700   2.2132   2.2326   2.2889   2.3685   2.3920   2.4066
     2.4387   2.4591   2.5120   2.5693   2.5888   2.6351   2.6924   2.7134
     2.8110   2.9171   2.9585   3.0281   3.0315   3.0530   3.1200   3.1990
     3.2161   3.2363   3.2744   3.3131   3.3556   3.4112   3.4415   3.4866
     3.4952   3.5077   3.5942   3.6167   3.6794   3.7055   3.7768   3.8220
     3.8791   3.9540   4.0148   4.0785   4.1321   4.2376   4.3267   4.3471
     4.4087   4.4584   4.4865   4.5297   4.5671   4.6250   4.6660   4.7400
     4.8001   4.8829   4.9533   5.0372   5.0537   5.1131   5.1985   5.3617
     5.3929   5.4278   5.4814   5.4989   5.5856   5.6274   5.7765   5.8923
     5.9409   5.9796   6.0739   6.1233   6.1893   6.2689   6.3692   6.3900
     6.4522   6.4973   6.5679   6.6460   6.7539   6.7969   6.8256   6.8810
     6.9770   7.0439   7.1139   7.2035   7.2349   7.3121   7.3848   7.4693
     7.5023   7.6397   7.6837   7.7667   7.8061   7.8976   7.9699   8.0520
     8.1541   8.1859   8.2323   8.2649   8.3658   8.4434   8.4948   8.6170
     8.6382   8.6932   8.7223   8.7698   8.8313

          k =-0.5000-0.5075-0.0598 ( 34132 PWs)   bands (ev):

    -8.5496  -7.3867  -7.1935  -7.0995  -6.8447  -6.8184  -6.6746  -6.5699
    -6.5230  -6.4357  -6.3761  -6.3525  -6.2583  -6.2442  -6.2017  -6.1041
    -6.0225  -6.0084  -5.9741  -5.8718  -5.8191  -5.7941  -5.7737  -5.6369
    -5.5395  -5.3312  -5.1358  -5.0709  -4.9485  -4.8564  -4.6462  -4.4063
     0.5390   0.7454   0.8922   0.9790   1.0060   1.0881   1.1086   1.1756
     1.2314   1.3005   1.3774   1.4231   1.5137   1.6109   1.6457   1.6582
     1.7825   1.8244   1.8495   1.8729   1.9175   1.9581   1.9932   2.0456
     2.0757   2.1374   2.1618   2.2550   2.2709   2.2994   2.3421   2.3750
     2.4304   2.4425   2.5114   2.5731   2.6176   2.6371   2.6703   2.7665
     2.8389   2.8773   2.9203   2.9740   3.0050   3.0327   3.0735   3.1184
     3.1918   3.2257   3.2676   3.3047   3.3541   3.3799   3.4234   3.4553
     3.5290   3.5658   3.6184   3.6535   3.6676   3.7588   3.8353   3.8468
     3.8891   3.9768   4.0373   4.0775   4.1536   4.2259   4.2505   4.3485
     4.3680   4.4073   4.4749   4.5339   4.6206   4.6569   4.7205   4.7943
     4.8504   4.9146   4.9240   4.9906   5.0243   5.0504   5.1532   5.2800
     5.3749   5.3934   5.4331   5.5855   5.6289   5.7263   5.7558   5.8214
     5.9770   5.9839   6.0567   6.1205   6.2109   6.2718   6.3598   6.4266
     6.4742   6.5469   6.6710   6.7067   6.7543   6.7830   6.8471   6.8988
     6.9885   7.0572   7.1372   7.1450   7.3126   7.3457   7.3909   7.5170
     7.5356   7.6389   7.6964   7.7654   7.8049   7.8377   7.8834   7.9583
     8.0761   8.1167   8.1820   8.2055   8.2776   8.3952   8.4502   8.5721
     8.6283   8.6790   8.7419   8.7957   8.8900

          k =-0.5000-0.5075-0.5306 ( 34116 PWs)   bands (ev):

    -8.5473  -7.2784  -7.2739  -7.0203  -6.8930  -6.8648  -6.7688  -6.7021
    -6.5430  -6.3960  -6.3361  -6.3245  -6.2108  -6.1794  -6.1548  -6.1078
    -6.0632  -6.0139  -5.9213  -5.8721  -5.8387  -5.8050  -5.7666  -5.6370
    -5.5355  -5.3209  -5.1462  -5.0698  -4.9748  -4.8353  -4.6425  -4.4114
     0.6134   0.7023   0.8700   0.9554   0.9889   1.0632   1.1558   1.1846
     1.2359   1.3566   1.4224   1.4341   1.4886   1.5842   1.6192   1.6618
     1.6890   1.7555   1.8251   1.8408   1.9077   1.9654   2.0212   2.0375
     2.0661   2.1258   2.1678   2.2272   2.2636   2.3061   2.3452   2.4040
     2.4388   2.5141   2.5315   2.5397   2.6120   2.6307   2.7183   2.7545
     2.8021   2.8584   2.9361   2.9548   3.0238   3.0401   3.1238   3.1478
     3.1638   3.1947   3.2135   3.2633   3.3100   3.3703   3.4337   3.4583
     3.4956   3.5433   3.5614   3.6157   3.6780   3.7396   3.8100   3.8386
     3.9245   3.9818   4.0543   4.0934   4.1770   4.2573   4.2923   4.3280
     4.3604   4.4852   4.5023   4.5711   4.6722   4.6906   4.7767   4.8340
     4.8734   4.9804   5.0118   5.0618   5.0818   5.2141   5.2577   5.2822
     5.3605   5.3889   5.4644   5.5366   5.5674   5.5882   5.7261   5.8317
     5.9022   5.9380   6.0398   6.1325   6.1660   6.2388   6.3928   6.4052
     6.4726   6.5556   6.5670   6.6503   6.7308   6.7676   6.8524   6.9080
     7.0010   7.0637   7.0995   7.2034   7.2198   7.3960   7.4291   7.4705
     7.5258   7.6249   7.6476   7.7196   7.7815   7.8076   7.8948   8.0092
     8.1137   8.1375   8.2301   8.2439   8.3677   8.3842   8.5431   8.5526
     8.6359   8.6863   8.7375   8.7841   8.8506

     the Fermi energy is     6.9576 ev

!    total energy              =   -1125.65021936 Ry
     Harris-Foulkes estimate   =   -1125.65021951 Ry
     estimated scf accuracy    <       0.00000023 Ry

     The total energy is the sum of the following terms:

     one-electron contribution =     -43.86740849 Ry
     hartree contribution      =     187.55264075 Ry
     xc contribution           =    -445.18144764 Ry
     ewald contribution        =    -824.15519326 Ry
     smearing contrib. (-TS)   =       0.00118928 Ry

     convergence has been achieved in  15 iterations

     Forces acting on atoms (cartesian axes, Ry/au):

     atom    1 type  1   force =    -0.01132714   -0.00239284    0.00410580
     atom    2 type  1   force =     0.04391353   -0.01239267   -0.01384973
     atom    3 type  1   force =     0.00181000   -0.01152984    0.00405027
     atom    4 type  1   force =     0.01183533   -0.03447227   -0.04184634
     atom    5 type  1   force =     0.02406045    0.01026659    0.01033824
     atom    6 type  1   force =    -0.01278210    0.01737635   -0.02547406
     atom    7 type  1   force =     0.02006309   -0.02967288   -0.01118183
     atom    8 type  1   force =     0.00017745    0.01887349    0.01669849
     atom    9 type  1   force =     0.02335034   -0.01025055    0.03219405
     atom   10 type  1   force =     0.01992540    0.00134427    0.01345821
     atom   11 type  1   force =     0.07685727    0.08088915   -0.02715120
     atom   12 type  1   force =    -0.06673383    0.00631667    0.06820179
     atom   13 type  1   force =     0.00836657    0.02266290   -0.07036437
     atom   14 type  1   force =     0.01522261   -0.00812442   -0.03019468
     atom   15 type  1   force =    -0.03450559   -0.01124425    0.04740599
     atom   16 type  1   force =     0.00615879   -0.00373212   -0.01659689
     atom   17 type  2   force =    -0.00621993    0.01395705    0.00960637
     atom   18 type  2   force =     0.02022785   -0.01972623    0.00371444
     atom   19 type  2   force =    -0.00811732    0.01874516   -0.00294425
     atom   20 type  2   force =     0.02443393    0.00549849   -0.00077817
     atom   21 type  2   force =    -0.01956909    0.00301939    0.00068261
     atom   22 type  2   force =    -0.01211572    0.01467164   -0.01305491
     atom   23 type  2   force =    -0.01619232    0.03401558   -0.02089848
     atom   24 type  2   force =    -0.01104734    0.01120403   -0.02695612
     atom   25 type  2   force =     0.00017828    0.01685970    0.00491108
     atom   26 type  2   force =    -0.00530451    0.00044919    0.03460507
     atom   27 type  2   force =    -0.00846922   -0.00543573    0.02859447
     atom   28 type  2   force =     0.01320430   -0.00568931    0.00459826
     atom   29 type  2   force =    -0.00236744    0.00687353   -0.00063643
     atom   30 type  2   force =    -0.01889072   -0.02396371   -0.00009725
     atom   31 type  2   force =    -0.03762542   -0.03383085   -0.02040968
     atom   32 type  2   force =    -0.02009083   -0.00150774   -0.00038752
     atom   33 type  2   force =     0.02297505   -0.01566834   -0.02081355
     atom   34 type  2   force =     0.03366836   -0.02336933    0.00155548
     atom   35 type  2   force =    -0.02322710    0.00705904    0.01128698
     atom   36 type  2   force =    -0.00859278    0.01891388    0.01864537
     atom   37 type  2   force =    -0.00403785    0.00597266    0.00960462
     atom   38 type  2   force =     0.02030631   -0.00106559    0.01471305
     atom   39 type  2   force =    -0.01316594    0.00265393    0.00201732
     atom   40 type  2   force =     0.00218204   -0.01122640    0.01360579
     atom   41 type  2   force =     0.01361582   -0.01441858   -0.00460360
     atom   42 type  2   force =    -0.00772441   -0.01274101   -0.01416391
     atom   43 type  2   force =    -0.03990384    0.01135877    0.02406084
     atom   44 type  2   force =     0.00938146   -0.00325215   -0.00436809
     atom   45 type  2   force =    -0.00313228    0.00433029    0.00525696
     atom   46 type  2   force =    -0.02138517   -0.02798842   -0.00756958
     atom   47 type  2   force =     0.00000387   -0.01532760   -0.01280402
     atom   48 type  2   force =     0.00060980    0.00571111    0.00323309

     Total force =     0.261813     Total SCF correction =     0.001034
 
     init_run     :      7.58s CPU      7.78s WALL (       1 calls)
     electrons    :    206.82s CPU    210.35s WALL (       1 calls)
     forces       :      4.24s CPU      4.35s WALL (       1 calls)

     Called by init_run:
     wfcinit      :      5.73s CPU      5.85s WALL (       1 calls)
     potinit      :      0.50s CPU      0.51s WALL (       1 calls)
     hinit0       :      0.69s CPU      0.70s WALL (       1 calls)

     Called by electrons:
     c_bands      :    174.99s CPU    177.08s WALL (      15 calls)
     sum_band     :     26.04s CPU     27.08s WALL (      15 calls)
     v_of_rho     :      0.97s CPU      1.02s WALL (      16 calls)
     newd         :      4.04s CPU      4.36s WALL (      16 calls)
     mix_rho      :      0.91s CPU      0.97s WALL (      15 calls)

     Called by c_bands:
     init_us_2    :      2.53s CPU      2.55s WALL (     256 calls)
     cegterg      :    163.44s CPU    165.49s WALL (     120 calls)

     Called by sum_band:
     sum_band:bec :      0.30s CPU      0.30s WALL (     120 calls)
     addusdens    :      5.63s CPU      6.29s WALL (      15 calls)

     Called by *egterg:
     h_psi        :     84.86s CPU     86.20s WALL (     533 calls)
     s_psi        :     18.08s CPU     18.09s WALL (     533 calls)
     g_psi        :      0.29s CPU      0.30s WALL (     405 calls)
     cdiaghg      :     35.63s CPU     36.27s WALL (     525 calls)

     Called by h_psi:
     h_psi:pot    :     84.21s CPU     85.54s WALL (     533 calls)
     h_psi:calbec :     19.40s CPU     19.86s WALL (     533 calls)
     vloc_psi     :     46.49s CPU     47.33s WALL (     533 calls)
     add_vuspsi   :     18.31s CPU     18.35s WALL (     533 calls)

     General routines
     calbec       :     29.24s CPU     29.92s WALL (     685 calls)
     fft          :      0.83s CPU      0.89s WALL (     217 calls)
     ffts         :      0.44s CPU      0.49s WALL (     385 calls)
     fftw         :     52.05s CPU     52.99s WALL (  118312 calls)
     interpolate  :      0.11s CPU      0.11s WALL (      16 calls)
 
     Parallel routines
     fft_scatt_xy :      5.28s CPU      5.37s WALL (  118914 calls)
     fft_scatt_yz :     20.60s CPU     21.05s WALL (  118914 calls)
 
     PWSCF        :   3m39.35s CPU   3m43.29s WALL

 
   This run was terminated on:  23:38:27  24Dec2021            

=------------------------------------------------------------------------------=
   JOB DONE.
=------------------------------------------------------------------------------=
