
     Program PWSCF v.6.4 starts on 14Oct2021 at  9:57:13 

     This program is part of the open-source Quantum ESPRESSO suite
     for quantum simulation of materials; please cite
         "P. Giannozzi et al., J. Phys.:Condens. Matter 21 395502 (2009);
         "P. Giannozzi et al., J. Phys.:Condens. Matter 29 465901 (2017);
          URL http://www.quantum-espresso.org", 
     in publications or presentations arising from this work. More details at
     http://www.quantum-espresso.org/quote

     Parallel version (MPI), running on    40 processors

     MPI processes distributed on     1 nodes
     R & G space division:  proc/nbgrp/npool/nimage =      40
     Waiting for input...
     Reading input from standard input
Warning: card    &IONS ignored
Warning: card      ION_DYNAMICS = 'BFGS' ignored
Warning: card   / ignored
Warning: card    &CELL ignored
Warning: card      CELL_DYNAMICS = 'BFGS', ignored
Warning: card    / ignored

     Current dimensions of program PWSCF are:
     Max number of different atomic species (ntypx) = 10
     Max number of k-points (npk) =  40000
     Max angular momentum in pseudopotentials (lmaxx) =  3

     Subspace diagonalization in iterative solution of the eigenvalue problem:
     one sub-group per band group will be used
     scalapack distributed-memory algorithm (size of sub-group:  4*  4 procs)

 
     Parallelization info
     --------------------
     sticks:   dense  smooth     PW     G-vecs:    dense   smooth      PW
     Min          95      47     13                24229     8563    1250
     Max          96      48     14                24243     8582    1268
     Sum        3801    1905    527               969557   342839   50399
 


     bravais-lattice index     =            0
     lattice parameter (alat)  =      12.5359  a.u.
     unit-cell volume          =    8407.5874 (a.u.)^3
     number of atoms/cell      =           36
     number of atomic types    =            2
     number of electrons       =       216.00
     number of Kohn-Sham states=          130
     kinetic-energy cutoff     =      45.0000  Ry
     charge density cutoff     =     360.0000  Ry
     convergence threshold     =      1.0E-06
     mixing beta               =       0.7000
     number of iterations used =            8  local-TF  mixing
     Exchange-correlation      = SLA PW GGX GGC ( 1  4  2  2 0 0)

     celldm(1)=  12.535914  celldm(2)=   0.000000  celldm(3)=   0.000000
     celldm(4)=   0.000000  celldm(5)=   0.000000  celldm(6)=   0.000000

     crystal axes: (cart. coord. in units of alat)
               a(1) = (   1.000000   0.000000   0.000000 )  
               a(2) = (   0.499050   0.844479   0.000000 )  
               a(3) = (  -1.845897   1.660424   5.053756 )  

     reciprocal axes: (cart. coord. in units 2 pi/alat)
               b(1) = (  1.000000 -0.590956  0.559413 )  
               b(2) = (  0.000000  1.184161 -0.389059 )  
               b(3) = (  0.000000  0.000000  0.197873 )  


     PseudoPot. # 1 for Mo read from file:
     ~/pseudo/Mo.pw91-n-van.UPF
     MD5 check sum: Not computed, couldn't open file
     Pseudo is Ultrasoft + core correction, Zval =  6.0
     Generated by new atomic code, or converted to UPF format
     Using radial grid of  965 points,  3 beta functions with: 
                l(1) =   1
                l(2) =   2
                l(3) =   2
     Q(r) pseudized with  8 coefficients,  rinner =    1.000   1.000   1.000
                                                       1.200   1.200

     PseudoPot. # 2 for S  read from file:
     ~/pseudo/S.pw91-van_ak.UPF
     MD5 check sum: Not computed, couldn't open file
     Pseudo is Ultrasoft, Zval =  6.0
     Generated by new atomic code, or converted to UPF format
     Using radial grid of  811 points,  6 beta functions with: 
                l(1) =   0
                l(2) =   0
                l(3) =   1
                l(4) =   1
                l(5) =   2
                l(6) =   2
     Q(r) pseudized with  8 coefficients,  rinner =    1.100   1.100   1.100
                                                       1.100   1.100

     atomic species   valence    mass     pseudopotential
        Mo             6.00    95.50000     Mo( 1.00)
        S              6.00    32.06500     S ( 1.00)

     No symmetry found



   Cartesian axes

     site n.     atom                  positions (alat units)
         1           Mo  tau(   1) = (   1.2209024   0.6790414  -0.0400366  )
         2           Mo  tau(   2) = (   0.4438287   0.2256376  -0.0570370  )
         3           Mo  tau(   3) = (   1.0407353   0.2847688  -0.0586892  )
         4           Mo  tau(   4) = (   0.8059953   0.6685509  -0.0635438  )
         5           Mo  tau(   5) = (   0.0288296   0.6420298   1.1939647  )
         6           Mo  tau(   6) = (   0.7813836   1.0648424   1.1969226  )
         7           Mo  tau(   7) = (   0.2784686   1.0754051   1.1862621  )
         8           Mo  tau(   8) = (   0.5281309   0.6492523   1.1934817  )
         9           Mo  tau(   9) = (  -1.4383206   1.3544267   3.9147349  )
        10           Mo  tau(  10) = (  -0.6954404   1.7796508   3.9175590  )
        11           Mo  tau(  11) = (  -1.1813519   1.7765857   3.9081233  )
        12           Mo  tau(  12) = (  -0.9412658   1.3587667   3.9175200  )
        13           S   tau(  13) = (  -1.0942285   1.7958899   4.7694184  )
        14           S   tau(  14) = (  -0.3405033   2.2171855   4.8009245  )
        15           S   tau(  15) = (  -0.8020848   2.2128711   4.7362633  )
        16           S   tau(  16) = (  -0.6228803   1.7685044   4.7471130  )
        17           S   tau(  17) = (   0.5370473   1.2084277   0.9533097  )
        18           S   tau(  18) = (  -0.2193571   0.7853928   0.9589292  )
        19           S   tau(  19) = (   0.2747541   0.7922908   0.9555099  )
        20           S   tau(  20) = (   0.0234679   1.2172986   0.9544436  )
        21           S   tau(  21) = (  -0.9351465   1.9240908   3.6716263  )
        22           S   tau(  22) = (  -0.6907630   1.5005634   3.6843585  )
        23           S   tau(  23) = (  -1.1879009   1.4958041   3.6742127  )
        24           S   tau(  24) = (  -0.4406016   1.9214027   3.6846740  )
        25           S   tau(  25) = (   1.0239995  -0.0266991   0.1463732  )
        26           S   tau(  26) = (   0.7579842   0.4095436   0.1547247  )
        27           S   tau(  27) = (   1.2640755   0.3991947   0.1924186  )
        28           S   tau(  28) = (   0.5000598  -0.0074350   0.2038766  )
        29           S   tau(  29) = (   0.5276596   1.2021654   1.4292468  )
        30           S   tau(  30) = (   0.7781464   0.7788910   1.4341889  )
        31           S   tau(  31) = (   0.2729085   0.7940816   1.4220735  )
        32           S   tau(  32) = (   1.0275535   1.2113426   1.4285704  )
        33           S   tau(  33) = (  -0.9451579   1.9192160   4.1563202  )
        34           S   tau(  34) = (  -0.6940531   1.4952863   4.1551767  )
        35           S   tau(  35) = (  -1.1942704   1.4977531   4.1517001  )
        36           S   tau(  36) = (  -0.4376499   1.9133935   4.1466159  )

     number of k points=     5  Marzari-Vanderbilt smearing, width (Ry)=  0.0200
                       cart. coord. in units 2pi/alat
        k(    1) = (   0.0000000   0.0000000   0.0000000), wk =   0.2222222
        k(    2) = (   0.0000000   0.3947205  -0.1296864), wk =   0.4444444
        k(    3) = (   0.3333333  -0.1969853   0.1864709), wk =   0.4444444
        k(    4) = (   0.3333333   0.1977352   0.0567845), wk =   0.4444444
        k(    5) = (   0.3333333  -0.5917058   0.3161573), wk =   0.4444444

     Dense  grid:   969557 G-vectors     FFT dimensions: (  75,  75, 432)

     Smooth grid:   342839 G-vectors     FFT dimensions: (  54,  54, 320)

     Estimated max dynamical RAM per process >     151.72 MB

     Estimated total dynamical RAM >       5.93 GB

     Initial potential from superposition of free atoms

     starting charge  215.98107, renormalised to  216.00000

     negative rho (up, down):  8.601E-04 0.000E+00
     Starting wfcs are  204 randomized atomic wfcs

     total cpu time spent up to now is        6.4 secs

     Self-consistent Calculation

     iteration #  1     ecut=    45.00 Ry     beta= 0.70
     Davidson diagonalization with overlap
     ethr =  1.00E-02,  avg # of iterations =  2.0

     negative rho (up, down):  8.234E-05 0.000E+00

     total cpu time spent up to now is       15.7 secs

     total energy              =    -843.76238403 Ry
     Harris-Foulkes estimate   =    -846.64625529 Ry
     estimated scf accuracy    <       7.97021855 Ry

     iteration #  2     ecut=    45.00 Ry     beta= 0.70
     Davidson diagonalization with overlap
     ethr =  3.69E-03,  avg # of iterations =  2.6

     negative rho (up, down):  7.744E-06 0.000E+00

     total cpu time spent up to now is       24.0 secs

     total energy              =    -845.13762737 Ry
     Harris-Foulkes estimate   =    -845.36706370 Ry
     estimated scf accuracy    <       1.12135181 Ry

     iteration #  3     ecut=    45.00 Ry     beta= 0.70
     Davidson diagonalization with overlap
     ethr =  5.19E-04,  avg # of iterations =  2.0

     negative rho (up, down):  4.373E-08 0.000E+00

     total cpu time spent up to now is       31.1 secs

     total energy              =    -845.19426460 Ry
     Harris-Foulkes estimate   =    -845.25025115 Ry
     estimated scf accuracy    <       0.20996632 Ry

     iteration #  4     ecut=    45.00 Ry     beta= 0.70
     Davidson diagonalization with overlap
     ethr =  9.72E-05,  avg # of iterations =  4.2

     total cpu time spent up to now is       40.2 secs

     total energy              =    -845.23468765 Ry
     Harris-Foulkes estimate   =    -845.25070661 Ry
     estimated scf accuracy    <       0.06159175 Ry

     iteration #  5     ecut=    45.00 Ry     beta= 0.70
     Davidson diagonalization with overlap
     ethr =  2.85E-05,  avg # of iterations =  9.6

     total cpu time spent up to now is       49.9 secs

     total energy              =    -845.23699992 Ry
     Harris-Foulkes estimate   =    -845.24151268 Ry
     estimated scf accuracy    <       0.01312120 Ry

     iteration #  6     ecut=    45.00 Ry     beta= 0.70
     Davidson diagonalization with overlap
     ethr =  6.07E-06,  avg # of iterations =  6.2

     total cpu time spent up to now is       60.5 secs

     total energy              =    -845.23899922 Ry
     Harris-Foulkes estimate   =    -845.24152629 Ry
     estimated scf accuracy    <       0.01312063 Ry

     iteration #  7     ecut=    45.00 Ry     beta= 0.70
     Davidson diagonalization with overlap
     ethr =  6.07E-06,  avg # of iterations =  1.8

     total cpu time spent up to now is       67.0 secs

     total energy              =    -845.23895057 Ry
     Harris-Foulkes estimate   =    -845.23965722 Ry
     estimated scf accuracy    <       0.00346702 Ry

     iteration #  8     ecut=    45.00 Ry     beta= 0.70
     Davidson diagonalization with overlap
     ethr =  1.61E-06,  avg # of iterations =  3.0

     total cpu time spent up to now is       74.5 secs

     total energy              =    -845.23956761 Ry
     Harris-Foulkes estimate   =    -845.23941455 Ry
     estimated scf accuracy    <       0.00177971 Ry

     iteration #  9     ecut=    45.00 Ry     beta= 0.70
     Davidson diagonalization with overlap
     ethr =  8.24E-07,  avg # of iterations =  2.8

     total cpu time spent up to now is       81.5 secs

     total energy              =    -845.24019726 Ry
     Harris-Foulkes estimate   =    -845.23976925 Ry
     estimated scf accuracy    <       0.00120779 Ry

     iteration # 10     ecut=    45.00 Ry     beta= 0.70
     Davidson diagonalization with overlap
     ethr =  5.59E-07,  avg # of iterations =  1.8

     negative rho (up, down):  5.995E-06 0.000E+00

     total cpu time spent up to now is       88.3 secs

     total energy              =    -845.24032929 Ry
     Harris-Foulkes estimate   =    -845.24025773 Ry
     estimated scf accuracy    <       0.00090470 Ry

     iteration # 11     ecut=    45.00 Ry     beta= 0.70
     Davidson diagonalization with overlap
     ethr =  4.19E-07,  avg # of iterations =  3.0

     negative rho (up, down):  2.324E-04 0.000E+00

     total cpu time spent up to now is       95.9 secs

     total energy              =    -845.24052788 Ry
     Harris-Foulkes estimate   =    -845.24044919 Ry
     estimated scf accuracy    <       0.00067582 Ry

     iteration # 12     ecut=    45.00 Ry     beta= 0.70
     Davidson diagonalization with overlap
     ethr =  3.13E-07,  avg # of iterations =  2.0

     negative rho (up, down):  1.121E-03 0.000E+00

     total cpu time spent up to now is      103.2 secs

     total energy              =    -845.24056995 Ry
     Harris-Foulkes estimate   =    -845.24057816 Ry
     estimated scf accuracy    <       0.00016077 Ry

     iteration # 13     ecut=    45.00 Ry     beta= 0.70
     Davidson diagonalization with overlap
     ethr =  7.44E-08,  avg # of iterations =  2.8

     negative rho (up, down):  1.972E-03 0.000E+00

     total cpu time spent up to now is      111.1 secs

     total energy              =    -845.24057430 Ry
     Harris-Foulkes estimate   =    -845.24058232 Ry
     estimated scf accuracy    <       0.00011720 Ry

     iteration # 14     ecut=    45.00 Ry     beta= 0.70
     Davidson diagonalization with overlap
     ethr =  5.43E-08,  avg # of iterations =  2.0

     negative rho (up, down):  1.422E-03 0.000E+00

     total cpu time spent up to now is      118.3 secs

     total energy              =    -845.24056813 Ry
     Harris-Foulkes estimate   =    -845.24058130 Ry
     estimated scf accuracy    <       0.00003107 Ry

     iteration # 15     ecut=    45.00 Ry     beta= 0.70
     Davidson diagonalization with overlap
     ethr =  1.44E-08,  avg # of iterations =  3.2

     negative rho (up, down):  1.343E-03 0.000E+00

     total cpu time spent up to now is      126.7 secs

     total energy              =    -845.24057003 Ry
     Harris-Foulkes estimate   =    -845.24057210 Ry
     estimated scf accuracy    <       0.00000586 Ry

     iteration # 16     ecut=    45.00 Ry     beta= 0.70
     Davidson diagonalization with overlap
     ethr =  2.71E-09,  avg # of iterations =  3.4

     negative rho (up, down):  1.203E-03 0.000E+00

     total cpu time spent up to now is      135.0 secs

     total energy              =    -845.24056817 Ry
     Harris-Foulkes estimate   =    -845.24057087 Ry
     estimated scf accuracy    <       0.00000195 Ry

     iteration # 17     ecut=    45.00 Ry     beta= 0.70
     Davidson diagonalization with overlap
     ethr =  9.01E-10,  avg # of iterations =  2.0

     negative rho (up, down):  1.184E-03 0.000E+00

     total cpu time spent up to now is      141.4 secs

     End of self-consistent calculation

          k = 0.0000 0.0000 0.0000 ( 42809 PWs)   bands (ev):

   -12.5090 -12.5056 -12.4198 -11.4867 -11.3244 -11.3163 -11.0640 -11.0269
   -10.9785 -10.9778 -10.9680 -10.9457 -10.8783 -10.8681 -10.6765 -10.6494
   -10.6274 -10.6227 -10.6104 -10.5412 -10.5236 -10.4878 -10.3186 -10.0848
    -4.3521  -4.3178  -4.2720  -4.1451  -4.1383  -4.1326  -4.1279  -4.1008
    -4.0953  -3.9987  -3.9820  -3.7496  -3.2092  -3.1876  -3.1710  -3.1637
    -3.1520  -3.1489  -3.0705  -2.9909  -2.7521  -2.7114  -2.6122  -2.5964
    -2.5827  -2.5678  -2.5394  -2.5337  -2.3339  -2.2495  -1.9134  -1.9042
    -1.8936  -1.7880  -1.7130  -1.7075  -1.6945  -1.6919  -1.4953  -1.4426
    -1.4389  -1.3945  -1.1950  -1.1879  -1.0688  -0.9170  -0.7464  -0.6599
    -0.5549  -0.4879  -0.4459  -0.4196  -0.3976  -0.3711  -0.3473  -0.2817
    -0.2742  -0.2666  -0.2523  -0.2175  -0.1608  -0.1186  -0.0178   0.0528
     0.0980   0.2695   0.2825   0.2860   0.3297   0.3445   0.4203   0.6663
     0.6848   0.6901   0.7115   0.7335   0.7814   0.7826   0.9376   1.1977
     1.2990   1.3609   1.4295   1.4620   1.9687   2.2406   2.9152   3.0551
     3.1035   3.1263   3.1383   3.1710   3.2059   3.3456   3.4362   3.6098
     3.6259   3.6437   3.6459   3.6847   3.6875   3.7139   3.7459   3.7643
     3.9406   3.9556

          k = 0.0000 0.3947-0.1297 ( 42931 PWs)   bands (ev):

   -12.1634 -12.1599 -12.0576 -11.3904 -11.3686 -11.3642 -11.2745 -11.1618
   -11.1538 -11.1088 -10.9946 -10.9943 -10.9760 -10.9653 -10.7839 -10.7786
   -10.7671 -10.6225 -10.6190 -10.5893 -10.5874 -10.5852 -10.3973 -10.2337
    -3.9679  -3.7524  -3.6949  -3.6936  -3.6657  -3.6650  -3.6316  -3.6198
    -3.6104  -3.5954  -3.5083  -3.3143  -3.2595  -3.2587  -3.2523  -3.2434
    -3.1282  -3.0413  -2.7018  -2.6071  -2.5924  -2.5864  -2.4801  -2.4413
    -2.4214  -2.4073  -2.4023  -2.3788  -2.3606  -2.2061  -2.0962  -1.9445
    -1.9136  -1.9107  -1.7492  -1.7167  -1.6901  -1.6764  -1.6587  -1.5861
    -1.5579  -1.5178  -1.3648  -1.3618  -1.2418  -1.0997  -1.0925  -1.0792
    -1.0140  -1.0067  -0.9563  -0.9467  -0.9347  -0.8026  -0.7952  -0.7462
    -0.5958  -0.5150  -0.3994  -0.3564  -0.3369  -0.3174  -0.2715  -0.2466
    -0.1513  -0.1300  -0.0966   0.1282   0.3114   0.3372   0.4178   0.4425
     0.4655   0.5186   0.6707   0.8026   0.8285   0.8549   0.8848   0.8964
     1.0922   1.1142   1.2057   1.3676   1.5581   2.2359   2.8215   3.0452
     3.0998   3.1298   3.1526   3.2101   3.2414   3.4332   3.4553   3.4841
     3.4887   3.5108   3.5294   3.5556   3.5991   3.6763   3.6858   3.7016
     3.7100   3.7472

          k = 0.3333-0.1970 0.1865 ( 42831 PWs)   bands (ev):

   -12.1819 -12.1779 -12.0844 -11.4321 -11.4254 -11.4180 -11.2591 -11.1691
   -11.1616 -11.0909 -10.9771 -10.9526 -10.9168 -10.8996 -10.8148 -10.8120
   -10.7658 -10.6288 -10.5929 -10.5471 -10.5394 -10.5281 -10.4463 -10.1834
    -3.9677  -3.8167  -3.7403  -3.7295  -3.7020  -3.6922  -3.6699  -3.6386
    -3.6217  -3.6154  -3.5171  -3.3817  -3.3013  -3.2909  -3.2599  -3.2546
    -3.2138  -3.1102  -2.7639  -2.6172  -2.6088  -2.5980  -2.5534  -2.5202
    -2.4677  -2.4094  -2.4002  -2.3509  -2.3473  -2.1475  -2.0407  -2.0345
    -2.0113  -1.8157  -1.8064  -1.7991  -1.7451  -1.7319  -1.6991  -1.5378
    -1.4306  -1.4164  -1.3782  -1.3768  -1.3159  -1.0937  -1.0365  -1.0208
    -0.9363  -0.9190  -0.8492  -0.8234  -0.8009  -0.7522  -0.7191  -0.7169
    -0.5912  -0.4758  -0.3927  -0.2967  -0.2753  -0.2431  -0.1714  -0.1619
    -0.1532  -0.0887  -0.0834   0.1238   0.2917   0.3025   0.3616   0.4308
     0.4440   0.5898   0.6337   0.6960   0.7245   0.8054   0.8570   0.9227
     1.0037   1.0754   1.0926   1.2097   1.5725   2.3824   2.8168   3.0781
     3.2100   3.2247   3.2548   3.2607   3.3093   3.3249   3.4227   3.4790
     3.4838   3.5052   3.5824   3.6071   3.6130   3.6652   3.6765   3.7491
     3.7584   3.7929

          k = 0.3333 0.1977 0.0568 ( 42820 PWs)   bands (ev):

   -12.1792 -12.1754 -12.0886 -11.4887 -11.4198 -11.4155 -11.1970 -11.1718
   -11.1617 -11.0180 -10.9837 -10.9713 -10.9212 -10.9011 -10.8400 -10.8257
   -10.8133 -10.6419 -10.6243 -10.6042 -10.5340 -10.5105 -10.3340 -10.1799
    -3.9674  -3.8270  -3.7617  -3.7407  -3.7334  -3.6932  -3.6538  -3.6504
    -3.6483  -3.6399  -3.6090  -3.5596  -3.3095  -3.3054  -3.2763  -3.2763
    -3.0817  -3.0376  -2.8721  -2.6121  -2.6023  -2.5187  -2.5040  -2.4504
    -2.4289  -2.4125  -2.3464  -2.3288  -2.2760  -2.0944  -2.0289  -2.0283
    -1.9633  -1.8377  -1.8320  -1.7910  -1.7304  -1.7150  -1.6655  -1.5131
    -1.4464  -1.4114  -1.4018  -1.3686  -1.3098  -1.2489  -1.1293  -1.1041
    -1.0490  -0.9499  -0.8925  -0.8479  -0.8074  -0.6801  -0.6691  -0.6004
    -0.4369  -0.3815  -0.3063  -0.2946  -0.2655  -0.2590  -0.1751  -0.1681
    -0.1303  -0.1023  -0.1022   0.1960   0.2472   0.2996   0.3451   0.3860
     0.4074   0.4179   0.6696   0.7017   0.7163   0.8293   0.8621   0.9427
     1.0034   1.0757   1.0925   1.1824   1.7777   2.1346   3.0282   3.0920
     3.1848   3.2131   3.2381   3.2820   3.3209   3.3816   3.3951   3.4176
     3.5074   3.5169   3.5448   3.6175   3.6657   3.6686   3.6905   3.7140
     3.7519   3.7698

          k = 0.3333-0.5917 0.3162 ( 42855 PWs)   bands (ev):

   -11.6551 -11.6439 -11.6390 -11.6030 -11.6030 -11.5912 -11.5888 -11.5067
   -11.4157 -11.1869 -10.9908 -10.9483 -10.9177 -10.8984 -10.8930 -10.8758
   -10.8581 -10.7211 -10.7141 -10.5846 -10.4543 -10.4472 -10.4220 -10.1599
    -3.7433  -3.7433  -3.6743  -3.5579  -3.4753  -3.3771  -3.3676  -3.3626
    -3.3616  -3.3466  -3.3441  -3.0994  -3.0043  -3.0027  -2.9876  -2.8062
    -2.6888  -2.6079  -2.5549  -2.5457  -2.5263  -2.4704  -2.4634  -2.4164
    -2.4145  -2.3825  -2.3667  -2.3254  -2.1953  -2.1922  -2.1675  -2.1648
    -2.1459  -2.1333  -2.1195  -2.1176  -2.0920  -1.9735  -1.8291  -1.7472
    -1.7365  -1.7136  -1.6991  -1.6546  -1.6205  -1.5821  -1.4484  -1.4150
    -1.3802  -1.3499  -1.0792  -0.8849  -0.7644  -0.7266  -0.7064  -0.7013
    -0.6623  -0.6597  -0.6457  -0.6129  -0.5658  -0.3961  -0.2425  -0.0612
     0.1832   0.1988   0.2521   0.2884   0.2919   0.3334   0.3538   0.4940
     0.5113   0.5287   0.5499   0.5572   0.6133   0.6232   0.7487   0.9590
     1.1429   1.2373   1.2489   1.2548   1.5717   2.0840   2.6406   2.6783
     2.7337   3.0298   3.1038   3.1317   3.1385   3.1883   3.1909   3.4168
     3.4463   3.4558   3.5199   3.5338   3.5430   3.6014   3.6280   3.6856
     3.7050   3.7145

     the Fermi energy is     1.4413 ev

!    total energy              =    -845.24056735 Ry
     Harris-Foulkes estimate   =    -845.24056833 Ry
     estimated scf accuracy    <       0.00000077 Ry

     The total energy is the sum of the following terms:

     one-electron contribution =   -5483.26923452 Ry
     hartree contribution      =    2825.58815269 Ry
     xc contribution           =    -333.55744730 Ry
     ewald contribution        =    2145.97885943 Ry
     smearing contrib. (-TS)   =       0.01910235 Ry

     convergence has been achieved in  17 iterations

     negative rho (up, down):  1.184E-03 0.000E+00

     Forces acting on atoms (cartesian axes, Ry/au):

     atom    1 type  1   force =     0.01961227    0.00000929   -0.01068359
     atom    2 type  1   force =     0.10724874    0.05606485   -0.00897477
     atom    3 type  1   force =    -0.04315906   -0.01772571   -0.03932581
     atom    4 type  1   force =    -0.01388133    0.08542746   -0.03992776
     atom    5 type  1   force =     0.00038493    0.01480831   -0.00704950
     atom    6 type  1   force =    -0.00587526    0.01058335   -0.01150541
     atom    7 type  1   force =    -0.00765070   -0.00558135    0.00768758
     atom    8 type  1   force =    -0.01177155    0.00748603   -0.00442687
     atom    9 type  1   force =    -0.01216000    0.01917527    0.00621436
     atom   10 type  1   force =     0.01823042    0.00581412    0.00519632
     atom   11 type  1   force =    -0.03276822    0.01484661    0.02137921
     atom   12 type  1   force =     0.00045491   -0.00862886    0.00166267
     atom   13 type  2   force =    -0.01589675   -0.00831970    0.04643384
     atom   14 type  2   force =     0.00798103   -0.03777690   -0.01462742
     atom   15 type  2   force =    -0.05324250   -0.01210854   -0.01417607
     atom   16 type  2   force =     0.02512077   -0.01530156   -0.03764351
     atom   17 type  2   force =    -0.00707515   -0.00453268    0.01442184
     atom   18 type  2   force =    -0.00065003   -0.00391615    0.00643131
     atom   19 type  2   force =     0.00476635   -0.01075565    0.00657716
     atom   20 type  2   force =     0.00427807   -0.01315492    0.01082084
     atom   21 type  2   force =    -0.00354877   -0.01094360    0.01619058
     atom   22 type  2   force =    -0.00061674   -0.01069477   -0.00347099
     atom   23 type  2   force =    -0.00036050   -0.00609624    0.01156353
     atom   24 type  2   force =     0.00056834   -0.00779931   -0.00616621
     atom   25 type  2   force =    -0.03256021    0.00668079    0.01448124
     atom   26 type  2   force =    -0.01596113   -0.06191116    0.02995947
     atom   27 type  2   force =    -0.00461327    0.02563199    0.06039441
     atom   28 type  2   force =     0.01934131   -0.02069261    0.01580729
     atom   29 type  2   force =     0.00313469    0.00658774   -0.00796335
     atom   30 type  2   force =     0.00411425    0.00730792   -0.01421158
     atom   31 type  2   force =     0.00988812   -0.00646161    0.00564108
     atom   32 type  2   force =     0.00583229   -0.00223120   -0.00659085
     atom   33 type  2   force =     0.00891069   -0.00139865   -0.02247082
     atom   34 type  2   force =     0.00854356    0.00145637   -0.01498255
     atom   35 type  2   force =     0.01109496   -0.00119384   -0.01323346
     atom   36 type  2   force =     0.00228547    0.00534489   -0.00343222

     Total force =     0.237774     Total SCF correction =     0.002190
 
     init_run     :      5.36s CPU      5.62s WALL (       1 calls)
     electrons    :    130.15s CPU    134.99s WALL (       1 calls)
     forces       :      2.66s CPU      2.75s WALL (       1 calls)

     Called by init_run:
     wfcinit      :      2.98s CPU      3.11s WALL (       1 calls)
     potinit      :      0.63s CPU      0.63s WALL (       1 calls)
     hinit0       :      0.81s CPU      0.86s WALL (       1 calls)

     Called by electrons:
     c_bands      :     93.48s CPU     95.57s WALL (      17 calls)
     sum_band     :     20.23s CPU     21.61s WALL (      17 calls)
     v_of_rho     :      1.59s CPU      1.69s WALL (      18 calls)
     newd         :      5.69s CPU      6.46s WALL (      18 calls)
     mix_rho      :      9.32s CPU      9.85s WALL (      17 calls)

     Called by c_bands:
     init_us_2    :      1.43s CPU      1.45s WALL (     180 calls)
     cegterg      :     86.99s CPU     89.02s WALL (      85 calls)

     Called by sum_band:
     sum_band:bec :      0.10s CPU      0.10s WALL (      85 calls)
     addusdens    :      6.79s CPU      7.91s WALL (      17 calls)

     Called by *egterg:
     h_psi        :     52.05s CPU     53.28s WALL (     362 calls)
     s_psi        :      8.81s CPU      8.84s WALL (     362 calls)
     g_psi        :      0.14s CPU      0.14s WALL (     272 calls)
     cdiaghg      :     13.44s CPU     13.74s WALL (     357 calls)

     Called by h_psi:
     h_psi:pot    :     51.78s CPU     52.77s WALL (     362 calls)
     h_psi:calbec :      9.27s CPU      9.54s WALL (     362 calls)
     vloc_psi     :     33.39s CPU     33.92s WALL (     362 calls)
     add_vuspsi   :      9.11s CPU      9.30s WALL (     362 calls)

     General routines
     calbec       :     13.86s CPU     14.25s WALL (     467 calls)
     fft          :      1.55s CPU      1.67s WALL (     243 calls)
     ffts         :      5.18s CPU      5.68s WALL (    3561 calls)
     fftw         :     36.10s CPU     36.68s WALL (   63076 calls)
     interpolate  :      0.15s CPU      0.16s WALL (      18 calls)
 
     Parallel routines
     fft_scatt_xy :      5.07s CPU      5.14s WALL (   66880 calls)
     fft_scatt_yz :     17.82s CPU     18.62s WALL (   66880 calls)
 
     PWSCF        :   2m18.83s CPU   2m24.30s WALL

 
   This run was terminated on:   9:59:37  14Oct2021            

=------------------------------------------------------------------------------=
   JOB DONE.
=------------------------------------------------------------------------------=

     Program PWSCF v.6.4 starts on 14Oct2021 at 10:46: 8 

     This program is part of the open-source Quantum ESPRESSO suite
     for quantum simulation of materials; please cite
         "P. Giannozzi et al., J. Phys.:Condens. Matter 21 395502 (2009);
         "P. Giannozzi et al., J. Phys.:Condens. Matter 29 465901 (2017);
          URL http://www.quantum-espresso.org", 
     in publications or presentations arising from this work. More details at
     http://www.quantum-espresso.org/quote

     Parallel version (MPI), running on    40 processors

     MPI processes distributed on     1 nodes
     R & G space division:  proc/nbgrp/npool/nimage =      40
     Waiting for input...
     Reading input from standard input
Warning: card    &IONS ignored
Warning: card      ION_DYNAMICS = 'BFGS' ignored
Warning: card   / ignored
Warning: card    &CELL ignored
Warning: card      CELL_DYNAMICS = 'BFGS', ignored
Warning: card    / ignored

     Current dimensions of program PWSCF are:
     Max number of different atomic species (ntypx) = 10
     Max number of k-points (npk) =  40000
     Max angular momentum in pseudopotentials (lmaxx) =  3

     Subspace diagonalization in iterative solution of the eigenvalue problem:
     one sub-group per band group will be used
     scalapack distributed-memory algorithm (size of sub-group:  4*  4 procs)

 
     Parallelization info
     --------------------
     sticks:   dense  smooth     PW     G-vecs:    dense   smooth      PW
     Min          95      47     13                24229     8563    1250
     Max          96      48     14                24243     8582    1268
     Sum        3801    1905    527               969557   342839   50399
 


     bravais-lattice index     =            0
     lattice parameter (alat)  =      12.5359  a.u.
     unit-cell volume          =    8407.5874 (a.u.)^3
     number of atoms/cell      =           36
     number of atomic types    =            2
     number of electrons       =       216.00
     number of Kohn-Sham states=          130
     kinetic-energy cutoff     =      45.0000  Ry
     charge density cutoff     =     360.0000  Ry
     convergence threshold     =      1.0E-06
     mixing beta               =       0.7000
     number of iterations used =            8  local-TF  mixing
     Exchange-correlation      = SLA PW GGX GGC ( 1  4  2  2 0 0)

     celldm(1)=  12.535914  celldm(2)=   0.000000  celldm(3)=   0.000000
     celldm(4)=   0.000000  celldm(5)=   0.000000  celldm(6)=   0.000000

     crystal axes: (cart. coord. in units of alat)
               a(1) = (   1.000000   0.000000   0.000000 )  
               a(2) = (   0.499050   0.844479   0.000000 )  
               a(3) = (  -1.845897   1.660424   5.053756 )  

     reciprocal axes: (cart. coord. in units 2 pi/alat)
               b(1) = (  1.000000 -0.590956  0.559413 )  
               b(2) = (  0.000000  1.184161 -0.389059 )  
               b(3) = (  0.000000  0.000000  0.197873 )  


     PseudoPot. # 1 for Mo read from file:
     ~/pseudo/Mo.pw91-n-van.UPF
     MD5 check sum: Not computed, couldn't open file
     Pseudo is Ultrasoft + core correction, Zval =  6.0
     Generated by new atomic code, or converted to UPF format
     Using radial grid of  965 points,  3 beta functions with: 
                l(1) =   1
                l(2) =   2
                l(3) =   2
     Q(r) pseudized with  8 coefficients,  rinner =    1.000   1.000   1.000
                                                       1.200   1.200

     PseudoPot. # 2 for S  read from file:
     ~/pseudo/S.pw91-van_ak.UPF
     MD5 check sum: Not computed, couldn't open file
     Pseudo is Ultrasoft, Zval =  6.0
     Generated by new atomic code, or converted to UPF format
     Using radial grid of  811 points,  6 beta functions with: 
                l(1) =   0
                l(2) =   0
                l(3) =   1
                l(4) =   1
                l(5) =   2
                l(6) =   2
     Q(r) pseudized with  8 coefficients,  rinner =    1.100   1.100   1.100
                                                       1.100   1.100

     atomic species   valence    mass     pseudopotential
        Mo             6.00    95.50000     Mo( 1.00)
        S              6.00    32.06500     S ( 1.00)

     No symmetry found



   Cartesian axes

     site n.     atom                  positions (alat units)
         1           Mo  tau(   1) = (   1.2209024   0.6790414  -0.0400366  )
         2           Mo  tau(   2) = (   0.4438287   0.2256376  -0.0570370  )
         3           Mo  tau(   3) = (   1.0407353   0.2847688  -0.0586892  )
         4           Mo  tau(   4) = (   0.8059953   0.6685509  -0.0635438  )
         5           Mo  tau(   5) = (   0.0288296   0.6420298   1.1939647  )
         6           Mo  tau(   6) = (   0.7813836   1.0648424   1.1969226  )
         7           Mo  tau(   7) = (   0.2784686   1.0754051   1.1862621  )
         8           Mo  tau(   8) = (   0.5281309   0.6492523   1.1934817  )
         9           Mo  tau(   9) = (  -1.4383206   1.3544267   3.9147349  )
        10           Mo  tau(  10) = (  -0.6954404   1.7796508   3.9175590  )
        11           Mo  tau(  11) = (  -1.1813519   1.7765857   3.9081233  )
        12           Mo  tau(  12) = (  -0.9412658   1.3587667   3.9175200  )
        13           S   tau(  13) = (  -1.0942285   1.7958899   4.7694184  )
        14           S   tau(  14) = (  -0.3405033   2.2171855   4.8009245  )
        15           S   tau(  15) = (  -0.8020848   2.2128711   4.7362633  )
        16           S   tau(  16) = (  -0.6228803   1.7685044   4.7471130  )
        17           S   tau(  17) = (   0.5370473   1.2084277   0.9533097  )
        18           S   tau(  18) = (  -0.2193571   0.7853928   0.9589292  )
        19           S   tau(  19) = (   0.2747541   0.7922908   0.9555099  )
        20           S   tau(  20) = (   0.0234679   1.2172986   0.9544436  )
        21           S   tau(  21) = (  -0.9351465   1.9240908   3.6716263  )
        22           S   tau(  22) = (  -0.6907630   1.5005634   3.6843585  )
        23           S   tau(  23) = (  -1.1879009   1.4958041   3.6742127  )
        24           S   tau(  24) = (  -0.4406016   1.9214027   3.6846740  )
        25           S   tau(  25) = (   1.0239995  -0.0266991   0.1463732  )
        26           S   tau(  26) = (   0.7579842   0.4095436   0.1547247  )
        27           S   tau(  27) = (   1.2640755   0.3991947   0.1924186  )
        28           S   tau(  28) = (   0.5000598  -0.0074350   0.2038766  )
        29           S   tau(  29) = (   0.5276596   1.2021654   1.4292468  )
        30           S   tau(  30) = (   0.7781464   0.7788910   1.4341889  )
        31           S   tau(  31) = (   0.2729085   0.7940816   1.4220735  )
        32           S   tau(  32) = (   1.0275535   1.2113426   1.4285704  )
        33           S   tau(  33) = (  -0.9451579   1.9192160   4.1563202  )
        34           S   tau(  34) = (  -0.6940531   1.4952863   4.1551767  )
        35           S   tau(  35) = (  -1.1942704   1.4977531   4.1517001  )
        36           S   tau(  36) = (  -0.4376499   1.9133935   4.1466159  )

     number of k points=     5  Marzari-Vanderbilt smearing, width (Ry)=  0.0200
                       cart. coord. in units 2pi/alat
        k(    1) = (   0.0000000   0.0000000   0.0000000), wk =   0.2222222
        k(    2) = (   0.0000000   0.3947205  -0.1296864), wk =   0.4444444
        k(    3) = (   0.3333333  -0.1969853   0.1864709), wk =   0.4444444
        k(    4) = (   0.3333333   0.1977352   0.0567845), wk =   0.4444444
        k(    5) = (   0.3333333  -0.5917058   0.3161573), wk =   0.4444444

     Dense  grid:   969557 G-vectors     FFT dimensions: (  75,  75, 432)

     Smooth grid:   342839 G-vectors     FFT dimensions: (  54,  54, 320)

     Estimated max dynamical RAM per process >     151.72 MB

     Estimated total dynamical RAM >       5.93 GB

     Initial potential from superposition of free atoms

     starting charge  215.98107, renormalised to  216.00000

     negative rho (up, down):  8.601E-04 0.000E+00
     Starting wfcs are  204 randomized atomic wfcs

     total cpu time spent up to now is        9.9 secs

     Self-consistent Calculation

     iteration #  1     ecut=    45.00 Ry     beta= 0.70
     Davidson diagonalization with overlap
     ethr =  1.00E-02,  avg # of iterations =  2.0

     negative rho (up, down):  8.241E-05 0.000E+00

     total cpu time spent up to now is       21.5 secs

     total energy              =    -843.76238234 Ry
     Harris-Foulkes estimate   =    -846.64625529 Ry
     estimated scf accuracy    <       7.97021855 Ry

     iteration #  2     ecut=    45.00 Ry     beta= 0.70
     Davidson diagonalization with overlap
     ethr =  3.69E-03,  avg # of iterations =  2.6

     negative rho (up, down):  7.880E-06 0.000E+00

     total cpu time spent up to now is       31.7 secs

     total energy              =    -845.13762389 Ry
     Harris-Foulkes estimate   =    -845.36706494 Ry
     estimated scf accuracy    <       1.12135874 Ry

     iteration #  3     ecut=    45.00 Ry     beta= 0.70
     Davidson diagonalization with overlap
     ethr =  5.19E-04,  avg # of iterations =  2.0

     negative rho (up, down):  4.318E-08 0.000E+00

     total cpu time spent up to now is       40.3 secs

     total energy              =    -845.19426384 Ry
     Harris-Foulkes estimate   =    -845.25025030 Ry
     estimated scf accuracy    <       0.20996315 Ry

     iteration #  4     ecut=    45.00 Ry     beta= 0.70
     Davidson diagonalization with overlap
     ethr =  9.72E-05,  avg # of iterations =  4.2

     total cpu time spent up to now is       51.5 secs

     total energy              =    -845.23468818 Ry
     Harris-Foulkes estimate   =    -845.25070586 Ry
     estimated scf accuracy    <       0.06159489 Ry

     iteration #  5     ecut=    45.00 Ry     beta= 0.70
     Davidson diagonalization with overlap
     ethr =  2.85E-05,  avg # of iterations =  9.6

     total cpu time spent up to now is       63.5 secs

     total energy              =    -845.23700292 Ry
     Harris-Foulkes estimate   =    -845.24151376 Ry
     estimated scf accuracy    <       0.01312042 Ry

     iteration #  6     ecut=    45.00 Ry     beta= 0.70
     Davidson diagonalization with overlap
     ethr =  6.07E-06,  avg # of iterations =  6.2

     total cpu time spent up to now is       77.8 secs

     total energy              =    -845.23900214 Ry
     Harris-Foulkes estimate   =    -845.24153034 Ry
     estimated scf accuracy    <       0.01312940 Ry

     iteration #  7     ecut=    45.00 Ry     beta= 0.70
     Davidson diagonalization with overlap
     ethr =  6.07E-06,  avg # of iterations =  1.8

     total cpu time spent up to now is       85.9 secs

     total energy              =    -845.23895257 Ry
     Harris-Foulkes estimate   =    -845.23966024 Ry
     estimated scf accuracy    <       0.00347015 Ry

     iteration #  8     ecut=    45.00 Ry     beta= 0.70
     Davidson diagonalization with overlap
     ethr =  1.61E-06,  avg # of iterations =  3.0

     total cpu time spent up to now is       95.2 secs

     total energy              =    -845.23956889 Ry
     Harris-Foulkes estimate   =    -845.23941696 Ry
     estimated scf accuracy    <       0.00177983 Ry

     iteration #  9     ecut=    45.00 Ry     beta= 0.70
     Davidson diagonalization with overlap
     ethr =  8.24E-07,  avg # of iterations =  2.8

     total cpu time spent up to now is      103.8 secs

     total energy              =    -845.24019738 Ry
     Harris-Foulkes estimate   =    -845.23977073 Ry
     estimated scf accuracy    <       0.00120899 Ry

     iteration # 10     ecut=    45.00 Ry     beta= 0.70
     Davidson diagonalization with overlap
     ethr =  5.60E-07,  avg # of iterations =  1.8

     negative rho (up, down):  5.950E-06 0.000E+00

     total cpu time spent up to now is      112.3 secs

     total energy              =    -845.24032866 Ry
     Harris-Foulkes estimate   =    -845.24025784 Ry
     estimated scf accuracy    <       0.00090444 Ry

     iteration # 11     ecut=    45.00 Ry     beta= 0.70
     Davidson diagonalization with overlap
     ethr =  4.19E-07,  avg # of iterations =  2.8

     negative rho (up, down):  2.321E-04 0.000E+00

     total cpu time spent up to now is      122.0 secs

     total energy              =    -845.24052773 Ry
     Harris-Foulkes estimate   =    -845.24044865 Ry
     estimated scf accuracy    <       0.00067645 Ry

     iteration # 12     ecut=    45.00 Ry     beta= 0.70
     Davidson diagonalization with overlap
     ethr =  3.13E-07,  avg # of iterations =  2.0

     negative rho (up, down):  1.116E-03 0.000E+00

     total cpu time spent up to now is      131.4 secs

     total energy              =    -845.24056988 Ry
     Harris-Foulkes estimate   =    -845.24057805 Ry
     estimated scf accuracy    <       0.00016052 Ry

     iteration # 13     ecut=    45.00 Ry     beta= 0.70
     Davidson diagonalization with overlap
     ethr =  7.43E-08,  avg # of iterations =  3.0

     negative rho (up, down):  1.966E-03 0.000E+00

     total cpu time spent up to now is      141.3 secs

     total energy              =    -845.24057410 Ry
     Harris-Foulkes estimate   =    -845.24058237 Ry
     estimated scf accuracy    <       0.00011848 Ry

     iteration # 14     ecut=    45.00 Ry     beta= 0.70
     Davidson diagonalization with overlap
     ethr =  5.49E-08,  avg # of iterations =  2.0

     negative rho (up, down):  1.422E-03 0.000E+00

     total cpu time spent up to now is      150.4 secs

     total energy              =    -845.24056816 Ry
     Harris-Foulkes estimate   =    -845.24058120 Ry
     estimated scf accuracy    <       0.00003105 Ry

     iteration # 15     ecut=    45.00 Ry     beta= 0.70
     Davidson diagonalization with overlap
     ethr =  1.44E-08,  avg # of iterations =  3.2

     negative rho (up, down):  1.351E-03 0.000E+00

     total cpu time spent up to now is      160.5 secs

     total energy              =    -845.24057012 Ry
     Harris-Foulkes estimate   =    -845.24057212 Ry
     estimated scf accuracy    <       0.00000614 Ry

     iteration # 16     ecut=    45.00 Ry     beta= 0.70
     Davidson diagonalization with overlap
     ethr =  2.84E-09,  avg # of iterations =  3.4

     negative rho (up, down):  1.205E-03 0.000E+00

     total cpu time spent up to now is      170.8 secs

     total energy              =    -845.24056820 Ry
     Harris-Foulkes estimate   =    -845.24057099 Ry
     estimated scf accuracy    <       0.00000205 Ry

     iteration # 17     ecut=    45.00 Ry     beta= 0.70
     Davidson diagonalization with overlap
     ethr =  9.51E-10,  avg # of iterations =  2.0

     negative rho (up, down):  1.184E-03 0.000E+00

     total cpu time spent up to now is      178.8 secs

     End of self-consistent calculation

          k = 0.0000 0.0000 0.0000 ( 42809 PWs)   bands (ev):

   -12.5090 -12.5056 -12.4197 -11.4867 -11.3244 -11.3163 -11.0639 -11.0269
   -10.9785 -10.9777 -10.9680 -10.9456 -10.8783 -10.8681 -10.6765 -10.6494
   -10.6274 -10.6226 -10.6103 -10.5412 -10.5235 -10.4878 -10.3186 -10.0848
    -4.3521  -4.3178  -4.2720  -4.1450  -4.1383  -4.1326  -4.1279  -4.1008
    -4.0953  -3.9987  -3.9820  -3.7496  -3.2092  -3.1875  -3.1710  -3.1637
    -3.1520  -3.1488  -3.0705  -2.9909  -2.7520  -2.7114  -2.6121  -2.5964
    -2.5827  -2.5678  -2.5394  -2.5337  -2.3339  -2.2494  -1.9134  -1.9041
    -1.8936  -1.7880  -1.7130  -1.7075  -1.6945  -1.6919  -1.4953  -1.4426
    -1.4389  -1.3945  -1.1950  -1.1878  -1.0688  -0.9170  -0.7464  -0.6599
    -0.5549  -0.4879  -0.4458  -0.4195  -0.3976  -0.3711  -0.3473  -0.2816
    -0.2742  -0.2666  -0.2523  -0.2175  -0.1608  -0.1186  -0.0178   0.0528
     0.0980   0.2695   0.2825   0.2861   0.3297   0.3445   0.4204   0.6663
     0.6848   0.6901   0.7115   0.7335   0.7814   0.7826   0.9376   1.1977
     1.2990   1.3609   1.4295   1.4621   1.9687   2.2406   2.9153   3.0551
     3.1036   3.1263   3.1383   3.1711   3.2060   3.3457   3.4362   3.6098
     3.6259   3.6437   3.6459   3.6847   3.6875   3.7140   3.7459   3.7643
     3.9406   3.9557

          k = 0.0000 0.3947-0.1297 ( 42931 PWs)   bands (ev):

   -12.1633 -12.1599 -12.0576 -11.3904 -11.3686 -11.3642 -11.2745 -11.1618
   -11.1538 -11.1088 -10.9945 -10.9943 -10.9760 -10.9653 -10.7838 -10.7786
   -10.7671 -10.6225 -10.6190 -10.5893 -10.5874 -10.5851 -10.3973 -10.2337
    -3.9679  -3.7524  -3.6949  -3.6936  -3.6656  -3.6650  -3.6316  -3.6198
    -3.6104  -3.5953  -3.5083  -3.3143  -3.2595  -3.2587  -3.2523  -3.2434
    -3.1282  -3.0413  -2.7018  -2.6071  -2.5923  -2.5864  -2.4801  -2.4413
    -2.4214  -2.4072  -2.4023  -2.3787  -2.3606  -2.2061  -2.0962  -1.9445
    -1.9136  -1.9106  -1.7492  -1.7166  -1.6901  -1.6764  -1.6587  -1.5861
    -1.5578  -1.5178  -1.3648  -1.3618  -1.2418  -1.0997  -1.0924  -1.0791
    -1.0140  -1.0067  -0.9563  -0.9467  -0.9347  -0.8026  -0.7952  -0.7462
    -0.5958  -0.5150  -0.3994  -0.3564  -0.3369  -0.3174  -0.2715  -0.2466
    -0.1513  -0.1300  -0.0966   0.1283   0.3114   0.3372   0.4178   0.4426
     0.4655   0.5186   0.6707   0.8026   0.8285   0.8549   0.8848   0.8964
     1.0922   1.1143   1.2057   1.3676   1.5581   2.2360   2.8215   3.0452
     3.0998   3.1299   3.1526   3.2101   3.2414   3.4332   3.4553   3.4841
     3.4888   3.5108   3.5294   3.5556   3.5991   3.6763   3.6858   3.7017
     3.7100   3.7473

          k = 0.3333-0.1970 0.1865 ( 42831 PWs)   bands (ev):

   -12.1819 -12.1779 -12.0844 -11.4321 -11.4254 -11.4179 -11.2591 -11.1691
   -11.1616 -11.0909 -10.9771 -10.9526 -10.9168 -10.8996 -10.8148 -10.8119
   -10.7657 -10.6287 -10.5928 -10.5471 -10.5394 -10.5281 -10.4463 -10.1834
    -3.9677  -3.8167  -3.7403  -3.7295  -3.7020  -3.6922  -3.6699  -3.6386
    -3.6216  -3.6154  -3.5171  -3.3817  -3.3013  -3.2909  -3.2599  -3.2546
    -3.2138  -3.1101  -2.7639  -2.6172  -2.6088  -2.5980  -2.5534  -2.5202
    -2.4677  -2.4094  -2.4002  -2.3509  -2.3473  -2.1475  -2.0406  -2.0345
    -2.0113  -1.8157  -1.8064  -1.7991  -1.7451  -1.7319  -1.6991  -1.5378
    -1.4306  -1.4164  -1.3782  -1.3768  -1.3158  -1.0937  -1.0365  -1.0207
    -0.9363  -0.9190  -0.8492  -0.8234  -0.8009  -0.7522  -0.7191  -0.7169
    -0.5911  -0.4758  -0.3927  -0.2966  -0.2753  -0.2431  -0.1714  -0.1619
    -0.1532  -0.0887  -0.0833   0.1238   0.2918   0.3025   0.3616   0.4309
     0.4440   0.5899   0.6337   0.6960   0.7245   0.8055   0.8570   0.9228
     1.0037   1.0754   1.0927   1.2097   1.5726   2.3824   2.8169   3.0781
     3.2101   3.2247   3.2548   3.2607   3.3093   3.3250   3.4228   3.4791
     3.4839   3.5052   3.5824   3.6071   3.6131   3.6652   3.6765   3.7491
     3.7584   3.7929

          k = 0.3333 0.1977 0.0568 ( 42820 PWs)   bands (ev):

   -12.1792 -12.1753 -12.0886 -11.4887 -11.4198 -11.4155 -11.1969 -11.1718
   -11.1617 -11.0180 -10.9837 -10.9713 -10.9211 -10.9011 -10.8400 -10.8257
   -10.8133 -10.6419 -10.6243 -10.6042 -10.5340 -10.5105 -10.3339 -10.1799
    -3.9674  -3.8269  -3.7617  -3.7407  -3.7334  -3.6932  -3.6537  -3.6504
    -3.6482  -3.6399  -3.6090  -3.5595  -3.3095  -3.3054  -3.2763  -3.2762
    -3.0816  -3.0375  -2.8721  -2.6121  -2.6023  -2.5187  -2.5040  -2.4504
    -2.4289  -2.4125  -2.3464  -2.3287  -2.2760  -2.0944  -2.0289  -2.0283
    -1.9632  -1.8376  -1.8319  -1.7910  -1.7304  -1.7149  -1.6655  -1.5131
    -1.4464  -1.4113  -1.4018  -1.3686  -1.3098  -1.2488  -1.1293  -1.1041
    -1.0490  -0.9499  -0.8925  -0.8479  -0.8073  -0.6800  -0.6691  -0.6004
    -0.4369  -0.3815  -0.3062  -0.2946  -0.2655  -0.2589  -0.1750  -0.1681
    -0.1303  -0.1023  -0.1022   0.1960   0.2473   0.2996   0.3451   0.3861
     0.4074   0.4179   0.6696   0.7018   0.7163   0.8293   0.8621   0.9427
     1.0034   1.0758   1.0925   1.1824   1.7778   2.1346   3.0282   3.0920
     3.1848   3.2131   3.2381   3.2820   3.3209   3.3816   3.3951   3.4176
     3.5074   3.5169   3.5449   3.6176   3.6657   3.6686   3.6906   3.7141
     3.7519   3.7698

          k = 0.3333-0.5917 0.3162 ( 42855 PWs)   bands (ev):

   -11.6551 -11.6438 -11.6390 -11.6030 -11.6030 -11.5912 -11.5888 -11.5067
   -11.4157 -11.1869 -10.9908 -10.9483 -10.9177 -10.8984 -10.8930 -10.8758
   -10.8581 -10.7211 -10.7141 -10.5846 -10.4543 -10.4472 -10.4219 -10.1599
    -3.7433  -3.7432  -3.6742  -3.5578  -3.4753  -3.3771  -3.3676  -3.3626
    -3.3616  -3.3466  -3.3441  -3.0994  -3.0043  -3.0027  -2.9876  -2.8062
    -2.6888  -2.6078  -2.5549  -2.5457  -2.5262  -2.4703  -2.4634  -2.4164
    -2.4145  -2.3825  -2.3667  -2.3253  -2.1953  -2.1922  -2.1675  -2.1648
    -2.1458  -2.1333  -2.1195  -2.1176  -2.0920  -1.9735  -1.8291  -1.7472
    -1.7365  -1.7136  -1.6991  -1.6546  -1.6205  -1.5821  -1.4483  -1.4150
    -1.3801  -1.3499  -1.0792  -0.8849  -0.7644  -0.7266  -0.7064  -0.7013
    -0.6623  -0.6597  -0.6456  -0.6129  -0.5658  -0.3961  -0.2425  -0.0612
     0.1832   0.1988   0.2521   0.2884   0.2919   0.3334   0.3538   0.4941
     0.5113   0.5287   0.5499   0.5572   0.6134   0.6232   0.7487   0.9590
     1.1429   1.2373   1.2489   1.2549   1.5717   2.0840   2.6406   2.6783
     2.7338   3.0298   3.1038   3.1317   3.1386   3.1883   3.1909   3.4169
     3.4464   3.4558   3.5200   3.5339   3.5430   3.6014   3.6280   3.6856
     3.7050   3.7145

     the Fermi energy is     1.4413 ev

!    total energy              =    -845.24056734 Ry
     Harris-Foulkes estimate   =    -845.24056838 Ry
     estimated scf accuracy    <       0.00000077 Ry

     The total energy is the sum of the following terms:

     one-electron contribution =   -5483.26915031 Ry
     hartree contribution      =    2825.58805220 Ry
     xc contribution           =    -333.55743102 Ry
     ewald contribution        =    2145.97885943 Ry
     smearing contrib. (-TS)   =       0.01910235 Ry

     convergence has been achieved in  17 iterations

     negative rho (up, down):  1.184E-03 0.000E+00

     Forces acting on atoms (cartesian axes, Ry/au):

     atom    1 type  1   force =     0.01961175    0.00000886   -0.01068347
     atom    2 type  1   force =     0.10724903    0.05606220   -0.00897637
     atom    3 type  1   force =    -0.04316149   -0.01772405   -0.03932519
     atom    4 type  1   force =    -0.01388088    0.08542719   -0.03992868
     atom    5 type  1   force =     0.00038591    0.01480903   -0.00704763
     atom    6 type  1   force =    -0.00587672    0.01058238   -0.01150786
     atom    7 type  1   force =    -0.00765034   -0.00558100    0.00768761
     atom    8 type  1   force =    -0.01177314    0.00748531   -0.00442614
     atom    9 type  1   force =    -0.01215845    0.01917663    0.00621327
     atom   10 type  1   force =     0.01823064    0.00581406    0.00519686
     atom   11 type  1   force =    -0.03276686    0.01484640    0.02137883
     atom   12 type  1   force =     0.00045456   -0.00862897    0.00166292
     atom   13 type  2   force =    -0.01589682   -0.00831919    0.04643548
     atom   14 type  2   force =     0.00798048   -0.03777705   -0.01462687
     atom   15 type  2   force =    -0.05324231   -0.01210892   -0.01417485
     atom   16 type  2   force =     0.02512156   -0.01530137   -0.03764180
     atom   17 type  2   force =    -0.00707426   -0.00453248    0.01441996
     atom   18 type  2   force =    -0.00065176   -0.00391699    0.00643103
     atom   19 type  2   force =     0.00476718   -0.01075635    0.00657602
     atom   20 type  2   force =     0.00427744   -0.01315346    0.01082042
     atom   21 type  2   force =    -0.00354909   -0.01094429    0.01618901
     atom   22 type  2   force =    -0.00061710   -0.01069433   -0.00347156
     atom   23 type  2   force =    -0.00036025   -0.00609612    0.01156223
     atom   24 type  2   force =     0.00056781   -0.00779921   -0.00616619
     atom   25 type  2   force =    -0.03256013    0.00668183    0.01448154
     atom   26 type  2   force =    -0.01596121   -0.06191161    0.02996015
     atom   27 type  2   force =    -0.00461310    0.02563189    0.06039458
     atom   28 type  2   force =     0.01934162   -0.02069229    0.01580820
     atom   29 type  2   force =     0.00313543    0.00658713   -0.00796218
     atom   30 type  2   force =     0.00411453    0.00730863   -0.01421158
     atom   31 type  2   force =     0.00988906   -0.00646089    0.00564170
     atom   32 type  2   force =     0.00583226   -0.00223214   -0.00659101
     atom   33 type  2   force =     0.00891062   -0.00139934   -0.02247047
     atom   34 type  2   force =     0.00854290    0.00145691   -0.01498187
     atom   35 type  2   force =     0.01109566   -0.00119345   -0.01323344
     atom   36 type  2   force =     0.00228548    0.00534504   -0.00343263

     Total force =     0.237773     Total SCF correction =     0.002205
 
     init_run     :      8.14s CPU      8.97s WALL (       1 calls)
     electrons    :    161.95s CPU    168.98s WALL (       1 calls)
     forces       :      3.43s CPU      3.59s WALL (       1 calls)

     Called by init_run:
     wfcinit      :      5.31s CPU      5.97s WALL (       1 calls)
     potinit      :      0.72s CPU      0.73s WALL (       1 calls)
     hinit0       :      0.94s CPU      0.99s WALL (       1 calls)

     Called by electrons:
     c_bands      :    113.10s CPU    115.57s WALL (      17 calls)
     sum_band     :     27.87s CPU     30.51s WALL (      17 calls)
     v_of_rho     :      2.46s CPU      2.56s WALL (      18 calls)
     newd         :      6.63s CPU      7.94s WALL (      18 calls)
     mix_rho      :     12.02s CPU     12.58s WALL (      17 calls)

     Called by c_bands:
     init_us_2    :      2.87s CPU      2.90s WALL (     180 calls)
     cegterg      :    104.62s CPU    107.02s WALL (      85 calls)

     Called by sum_band:
     sum_band:bec :      0.13s CPU      0.14s WALL (      85 calls)
     addusdens    :     10.84s CPU     13.24s WALL (      17 calls)

     Called by *egterg:
     h_psi        :     62.75s CPU     64.51s WALL (     362 calls)
     s_psi        :     11.08s CPU     11.10s WALL (     362 calls)
     g_psi        :      0.32s CPU      0.32s WALL (     272 calls)
     cdiaghg      :     14.17s CPU     14.46s WALL (     357 calls)

     Called by h_psi:
     h_psi:pot    :     62.10s CPU     63.42s WALL (     362 calls)
     h_psi:calbec :     12.44s CPU     12.76s WALL (     362 calls)
     vloc_psi     :     38.47s CPU     39.32s WALL (     362 calls)
     add_vuspsi   :     11.18s CPU     11.34s WALL (     362 calls)

     General routines
     calbec       :     18.48s CPU     18.92s WALL (     467 calls)
     fft          :      2.53s CPU      2.72s WALL (     243 calls)
     ffts         :      5.13s CPU      5.64s WALL (    3515 calls)
     fftw         :     43.01s CPU     43.89s WALL (   63072 calls)
     interpolate  :      0.24s CPU      0.26s WALL (      18 calls)
 
     Parallel routines
     fft_scatt_xy :      5.48s CPU      5.55s WALL (   66830 calls)
     fft_scatt_yz :     23.73s CPU     24.93s WALL (   66830 calls)
 
     PWSCF        :   2m54.26s CPU   3m 2.51s WALL

 
   This run was terminated on:  10:49:10  14Oct2021            

=------------------------------------------------------------------------------=
   JOB DONE.
=------------------------------------------------------------------------------=
