
     Program PWSCF v.6.4 starts on 28Nov2021 at 10:39:47 

     This program is part of the open-source Quantum ESPRESSO suite
     for quantum simulation of materials; please cite
         "P. Giannozzi et al., J. Phys.:Condens. Matter 21 395502 (2009);
         "P. Giannozzi et al., J. Phys.:Condens. Matter 29 465901 (2017);
          URL http://www.quantum-espresso.org", 
     in publications or presentations arising from this work. More details at
     http://www.quantum-espresso.org/quote

     Parallel version (MPI), running on    40 processors

     MPI processes distributed on     1 nodes
     R & G space division:  proc/nbgrp/npool/nimage =      40
     Waiting for input...
     Reading input from standard input
Warning: card    &IONS ignored
Warning: card      ION_DYNAMICS = 'BFGS' ignored
Warning: card   / ignored
Warning: card    &CELL ignored
Warning: card      CELL_DYNAMICS = 'BFGS', ignored
Warning: card    / ignored

     Current dimensions of program PWSCF are:
     Max number of different atomic species (ntypx) = 10
     Max number of k-points (npk) =  40000
     Max angular momentum in pseudopotentials (lmaxx) =  3

     Subspace diagonalization in iterative solution of the eigenvalue problem:
     one sub-group per band group will be used
     scalapack distributed-memory algorithm (size of sub-group:  4*  4 procs)

 
     Parallelization info
     --------------------
     sticks:   dense  smooth     PW     G-vecs:    dense   smooth      PW
     Min         124      62     17                 9358     3309     468
     Max         125      63     18                 9366     3313     476
     Sum        4987    2491    681               374469   132411   18921
 


     bravais-lattice index     =            0
     lattice parameter (alat)  =      10.3520  a.u.
     unit-cell volume          =    3246.5488 (a.u.)^3
     number of atoms/cell      =           27
     number of atomic types    =            2
     number of electrons       =       162.00
     number of Kohn-Sham states=           97
     kinetic-energy cutoff     =      45.0000  Ry
     charge density cutoff     =     360.0000  Ry
     convergence threshold     =      1.0E-06
     mixing beta               =       0.7000
     number of iterations used =            8  local-TF  mixing
     Exchange-correlation      = SLA PW GGX GGC ( 1  4  2  2 0 0)

     celldm(1)=  10.351953  celldm(2)=   0.000000  celldm(3)=   0.000000
     celldm(4)=   0.000000  celldm(5)=   0.000000  celldm(6)=   0.000000

     crystal axes: (cart. coord. in units of alat)
               a(1) = (   0.999935   0.010266   0.004890 )  
               a(2) = (   0.001611   1.625095  -0.018297 )  
               a(3) = (  -0.030065   0.410084   1.796210 )  

     reciprocal axes: (cart. coord. in units 2 pi/alat)
               b(1) = (  0.999990 -0.000801  0.016921 )  
               b(2) = ( -0.005616  0.613775 -0.140222 )  
               b(3) = ( -0.002780  0.006254  0.555253 )  


     PseudoPot. # 1 for Mo read from file:
     ~/pseudo/Mo.pw91-n-van.UPF
     MD5 check sum: Not computed, couldn't open file
     Pseudo is Ultrasoft + core correction, Zval =  6.0
     Generated by new atomic code, or converted to UPF format
     Using radial grid of  965 points,  3 beta functions with: 
                l(1) =   1
                l(2) =   2
                l(3) =   2
     Q(r) pseudized with  8 coefficients,  rinner =    1.000   1.000   1.000
                                                       1.200   1.200

     PseudoPot. # 2 for S  read from file:
     ~/pseudo/S.pw91-van_ak.UPF
     MD5 check sum: Not computed, couldn't open file
     Pseudo is Ultrasoft, Zval =  6.0
     Generated by new atomic code, or converted to UPF format
     Using radial grid of  811 points,  6 beta functions with: 
                l(1) =   0
                l(2) =   0
                l(3) =   1
                l(4) =   1
                l(5) =   2
                l(6) =   2
     Q(r) pseudized with  8 coefficients,  rinner =    1.100   1.100   1.100
                                                       1.100   1.100

     atomic species   valence    mass     pseudopotential
        Mo             6.00    95.50000     Mo( 1.00)
        S              6.00    32.06500     S ( 1.00)

     No symmetry found



   Cartesian axes

     site n.     atom                  positions (alat units)
         1           Mo  tau(   1) = (  -0.0304535   1.1120733   0.8047976  )
         2           Mo  tau(   2) = (   0.9916315   1.0181636   0.2883485  )
         3           Mo  tau(   3) = (   0.9839613   0.6209201   0.6634072  )
         4           Mo  tau(   4) = (   0.9409097   1.9113398   1.5568025  )
         5           Mo  tau(   5) = (   0.9502693   0.6869481   1.2173905  )
         6           Mo  tau(   6) = (   0.9705789   1.8131478   1.0363854  )
         7           Mo  tau(   7) = (   0.4731576   0.4227243   0.0523162  )
         8           Mo  tau(   8) = (   0.4607144   1.2831856   1.4394663  )
         9           Mo  tau(   9) = (   0.4983847   1.6361392   0.4087845  )
        10           S   tau(  10) = (   0.6734754   0.4809221   0.9499419  )
        11           S   tau(  11) = (   0.1952070   1.4106104   1.1021899  )
        12           S   tau(  12) = (   0.7638637   1.2225371   1.7278205  )
        13           S   tau(  13) = (   0.2664974   0.3768562   1.3094761  )
        14           S   tau(  14) = (   0.6881096   1.0594874   1.1474449  )
        15           S   tau(  15) = (   0.7554231   1.5180154   0.7531571  )
        16           S   tau(  16) = (   0.7267556   1.3619150   0.1406214  )
        17           S   tau(  17) = (   0.1794605   0.9545521   1.5146947  )
        18           S   tau(  18) = (   0.2685263   0.6824392   0.3299928  )
        19           S   tau(  19) = (   0.2607642   1.2608507   0.5054881  )
        20           S   tau(  20) = (   0.2555476   0.2409333   0.7159679  )
        21           S   tau(  21) = (   0.1613824   1.5346266   1.6728741  )
        22           S   tau(  22) = (   0.6774909   0.9140506   0.5607910  )
        23           S   tau(  23) = (   0.6656564   1.6729471   1.3270289  )
        24           S   tau(  24) = (   0.1871504   0.0929352   0.1209479  )
        25           S   tau(  25) = (   0.2643521   0.8157419   0.9306968  )
        26           S   tau(  26) = (   0.6810298   0.6236557   1.5527863  )
        27           S   tau(  27) = (   0.7832884   0.3299142   0.3531500  )

     number of k points=     8  Marzari-Vanderbilt smearing, width (Ry)=  0.0200
                       cart. coord. in units 2pi/alat
        k(    1) = (   0.0000000   0.0000000   0.0000000), wk =   0.1666667
        k(    2) = (   0.0013898  -0.0031272  -0.2776267), wk =   0.1666667
        k(    3) = (   0.0028079  -0.3068877   0.0701110), wk =   0.1666667
        k(    4) = (   0.0041977  -0.3100149  -0.2075157), wk =   0.1666667
        k(    5) = (   0.3333300  -0.0002669   0.0056403), wk =   0.3333333
        k(    6) = (   0.3347198  -0.0033942  -0.2719864), wk =   0.3333333
        k(    7) = (   0.3361380  -0.3071546   0.0757513), wk =   0.3333333
        k(    8) = (   0.3375278  -0.3102818  -0.2018754), wk =   0.3333333

     Dense  grid:   374469 G-vectors     FFT dimensions: (  64, 108, 120)

     Smooth grid:   132411 G-vectors     FFT dimensions: (  45,  72,  81)

     Estimated max dynamical RAM per process >      56.90 MB

     Estimated total dynamical RAM >       2.22 GB

     Initial potential from superposition of free atoms

     starting charge  161.98581, renormalised to  162.00000
     Starting wfcs are  153 randomized atomic wfcs

     total cpu time spent up to now is        3.1 secs

     Self-consistent Calculation

     iteration #  1     ecut=    45.00 Ry     beta= 0.70
     Davidson diagonalization with overlap
     ethr =  1.00E-02,  avg # of iterations =  2.0

     total cpu time spent up to now is        7.2 secs

     total energy              =    -632.34783778 Ry
     Harris-Foulkes estimate   =    -634.57099131 Ry
     estimated scf accuracy    <       5.57043428 Ry

     iteration #  2     ecut=    45.00 Ry     beta= 0.70
     Davidson diagonalization with overlap
     ethr =  3.44E-03,  avg # of iterations =  2.0

     total cpu time spent up to now is       11.1 secs

     total energy              =    -633.30130163 Ry
     Harris-Foulkes estimate   =    -633.75331429 Ry
     estimated scf accuracy    <       1.92946635 Ry

     iteration #  3     ecut=    45.00 Ry     beta= 0.70
     Davidson diagonalization with overlap
     ethr =  1.19E-03,  avg # of iterations =  2.0

     total cpu time spent up to now is       14.4 secs

     total energy              =    -633.51309046 Ry
     Harris-Foulkes estimate   =    -633.55698401 Ry
     estimated scf accuracy    <       0.27338000 Ry

     iteration #  4     ecut=    45.00 Ry     beta= 0.70
     Davidson diagonalization with overlap
     ethr =  1.69E-04,  avg # of iterations =  2.8

     total cpu time spent up to now is       18.9 secs

     total energy              =    -633.54151079 Ry
     Harris-Foulkes estimate   =    -633.55450162 Ry
     estimated scf accuracy    <       0.05203712 Ry

     iteration #  5     ecut=    45.00 Ry     beta= 0.70
     Davidson diagonalization with overlap
     ethr =  3.21E-05,  avg # of iterations =  8.8

     total cpu time spent up to now is       25.9 secs

     total energy              =    -633.54677996 Ry
     Harris-Foulkes estimate   =    -633.55147978 Ry
     estimated scf accuracy    <       0.02287791 Ry

     iteration #  6     ecut=    45.00 Ry     beta= 0.70
     Davidson diagonalization with overlap
     c_bands:  1 eigenvalues not converged
     ethr =  1.41E-05,  avg # of iterations =  6.0

     total cpu time spent up to now is       30.4 secs

     total energy              =    -633.54897900 Ry
     Harris-Foulkes estimate   =    -633.54943543 Ry
     estimated scf accuracy    <       0.00321338 Ry

     iteration #  7     ecut=    45.00 Ry     beta= 0.70
     Davidson diagonalization with overlap
     ethr =  1.98E-06,  avg # of iterations = 10.0

     total cpu time spent up to now is       37.2 secs

     total energy              =    -633.54934800 Ry
     Harris-Foulkes estimate   =    -633.54947398 Ry
     estimated scf accuracy    <       0.00060973 Ry

     iteration #  8     ecut=    45.00 Ry     beta= 0.70
     Davidson diagonalization with overlap
     ethr =  3.76E-07,  avg # of iterations =  2.2

     total cpu time spent up to now is       40.6 secs

     total energy              =    -633.54940473 Ry
     Harris-Foulkes estimate   =    -633.54942400 Ry
     estimated scf accuracy    <       0.00009328 Ry

     iteration #  9     ecut=    45.00 Ry     beta= 0.70
     Davidson diagonalization with overlap
     ethr =  5.76E-08,  avg # of iterations =  3.9

     total cpu time spent up to now is       45.5 secs

     total energy              =    -633.54942142 Ry
     Harris-Foulkes estimate   =    -633.54943149 Ry
     estimated scf accuracy    <       0.00007859 Ry

     iteration # 10     ecut=    45.00 Ry     beta= 0.70
     Davidson diagonalization with overlap
     ethr =  4.85E-08,  avg # of iterations =  1.1

     total cpu time spent up to now is       48.5 secs

     total energy              =    -633.54942641 Ry
     Harris-Foulkes estimate   =    -633.54942774 Ry
     estimated scf accuracy    <       0.00000827 Ry

     iteration # 11     ecut=    45.00 Ry     beta= 0.70
     Davidson diagonalization with overlap
     ethr =  5.10E-09,  avg # of iterations =  3.9

     total cpu time spent up to now is       52.6 secs

     total energy              =    -633.54942740 Ry
     Harris-Foulkes estimate   =    -633.54942764 Ry
     estimated scf accuracy    <       0.00000171 Ry

     iteration # 12     ecut=    45.00 Ry     beta= 0.70
     Davidson diagonalization with overlap
     ethr =  1.06E-09,  avg # of iterations =  2.5

     total cpu time spent up to now is       56.3 secs

     End of self-consistent calculation

          k = 0.0000 0.0000 0.0000 ( 16501 PWs)   bands (ev):

    -6.0168  -5.1232  -5.0393  -4.8250  -4.6793  -4.5053  -4.4175  -4.0941
    -4.0525  -4.0182  -3.9608  -3.9156  -3.8686  -3.7871  -3.6464  -3.5464
    -3.4261  -3.2669   2.1336   2.6482   2.9122   2.9547   2.9877   3.0573
     3.1712   3.2670   3.4110   3.4498   3.5505   3.6384   3.7537   3.8474
     3.9329   4.0239   4.0552   4.0924   4.1483   4.2221   4.3913   4.4399
     4.6223   4.6363   4.7156   4.7834   4.8713   5.0631   5.0986   5.1785
     5.2429   5.3137   5.3789   5.4669   5.5238   5.7263   5.7833   5.9138
     5.9575   6.0661   6.1781   6.2248   6.3341   6.3885   6.5242   6.7506
     6.7756   6.8361   7.0291   7.1062   7.2239   7.4786   7.5488   7.7490
     7.8029   7.8507   7.9844   8.1093   8.2567   8.2689   8.4836   8.6198
     8.6475   8.8205   8.9933   9.1462   9.3951   9.5090   9.6156   9.6791
     9.7687   9.8538  10.0868  10.1675  10.2376  10.4472  10.4710  10.6625
    10.7260

          k = 0.0014-0.0031-0.2776 ( 16526 PWs)   bands (ev):

    -5.8265  -5.6638  -4.8240  -4.7326  -4.5218  -4.4825  -4.3389  -4.2673
    -4.0706  -4.0086  -3.9838  -3.9077  -3.8692  -3.7979  -3.6371  -3.5390
    -3.3945  -3.3178   2.3820   2.4183   2.6075   2.7035   2.9571   3.0846
     3.1162   3.3133   3.3557   3.5498   3.6372   3.6752   3.8706   3.8816
     3.9689   4.0865   4.2150   4.2546   4.3362   4.3728   4.3759   4.4929
     4.5658   4.6500   4.6856   4.7806   4.9004   4.9991   5.0087   5.1232
     5.1943   5.1979   5.4064   5.4834   5.5615   5.6804   5.8431   5.9330
     6.0056   6.0883   6.0983   6.2110   6.3243   6.5120   6.6250   6.6363
     6.7893   6.8190   6.9088   7.0228   7.1946   7.2851   7.5039   7.6184
     7.7458   7.8642   7.8782   8.1065   8.2030   8.2823   8.3500   8.6178
     8.7614   9.0425   9.1281   9.1731   9.2204   9.5299   9.6595   9.7117
     9.8817   9.8916   9.9758  10.2507  10.3881  10.4823  10.5581  10.6603
    10.7461

          k = 0.0028-0.3069 0.0701 ( 16550 PWs)   bands (ev):

    -5.8141  -5.4941  -5.0291  -4.9459  -4.6286  -4.5743  -4.2073  -4.0553
    -4.0151  -3.9506  -3.9323  -3.9160  -3.8596  -3.7875  -3.6787  -3.5549
    -3.4283  -3.2677   2.3593   2.4422   2.6116   2.8225   2.9901   3.0733
     3.1723   3.2763   3.3023   3.3440   3.4847   3.6309   3.7428   3.8228
     3.8603   3.9112   4.0268   4.1694   4.1999   4.3260   4.4201   4.4702
     4.5668   4.7102   4.7572   4.8626   4.9694   5.0377   5.1635   5.2696
     5.2983   5.3439   5.5383   5.7162   5.8495   5.8677   5.9577   6.0784
     6.1123   6.1708   6.1832   6.3207   6.3719   6.3994   6.4878   6.5582
     6.7235   6.8653   6.9301   7.1345   7.2274   7.2748   7.3612   7.5003
     7.6034   7.7357   7.7823   7.9102   7.9199   8.1043   8.1858   8.4089
     8.7640   9.1445   9.2415   9.3598   9.4394   9.5056   9.6050   9.7403
     9.7817   9.8903  10.0003  10.1520  10.2511  10.3040  10.4297  10.5889
    10.6769

          k = 0.0042-0.3100-0.2075 ( 16560 PWs)   bands (ev):

    -5.7084  -5.4500  -5.2719  -5.1567  -4.4120  -4.3533  -4.2062  -4.1166
    -4.0228  -3.9492  -3.9329  -3.9136  -3.8889  -3.8248  -3.6452  -3.5503
    -3.4008  -3.3197   2.2769   2.5280   2.6163   2.6728   2.7895   2.9621
     3.1255   3.1494   3.2556   3.3673   3.4025   3.4981   3.5634   3.6748
     4.1353   4.2474   4.3399   4.3906   4.4552   4.4988   4.5570   4.7440
     4.8266   4.8888   4.8998   4.9649   5.0488   5.1137   5.2035   5.2629
     5.2696   5.3395   5.3812   5.5105   5.5483   5.6317   5.7694   5.9090
     5.9740   6.0578   6.0873   6.2109   6.2884   6.3229   6.4056   6.5201
     6.6066   6.8425   6.8774   6.9866   7.1185   7.1564   7.2369   7.6076
     7.6964   7.8286   7.8740   7.9609   8.0029   8.3716   8.4418   8.6211
     8.8542   8.9428   8.9878   9.1813   9.3777   9.5526   9.6565   9.7510
     9.8448   9.9606   9.9837  10.1684  10.2265  10.4756  10.5413  10.6479
    10.7256

          k = 0.3333-0.0003 0.0056 ( 16565 PWs)   bands (ev):

    -5.6349  -4.9704  -4.9259  -4.7045  -4.6416  -4.5147  -4.4210  -4.3467
    -4.2925  -4.1961  -4.1314  -4.0429  -3.9087  -3.7882  -3.6568  -3.5288
    -3.4881  -3.3139   2.5257   2.7074   2.8090   2.9386   2.9701   3.0211
     3.0747   3.1590   3.2292   3.3212   3.3521   3.4947   3.5931   3.6205
     3.7437   3.9091   4.0093   4.3080   4.4402   4.5055   4.5748   4.6259
     4.6695   4.6942   4.8829   5.0519   5.1257   5.2011   5.2444   5.2862
     5.3760   5.4182   5.5341   5.5627   5.6622   5.7898   5.8337   5.9250
     6.0069   6.1312   6.2179   6.2626   6.3721   6.3992   6.5255   6.6032
     6.7092   6.8978   7.0118   7.0654   7.1205   7.1998   7.3360   7.4163
     7.6561   7.8185   7.9348   8.0412   8.0914   8.2985   8.3672   8.5083
     8.7480   8.8300   9.1056   9.1371   9.2418   9.4728   9.5465   9.6566
     9.7842   9.9623  10.0643  10.1949  10.3659  10.4498  10.5054  10.7143
    10.8362

          k = 0.3347-0.0034-0.2720 ( 16538 PWs)   bands (ev):

    -5.4898  -5.3414  -4.7700  -4.6742  -4.5866  -4.5284  -4.4508  -4.3914
    -4.2958  -4.1714  -4.0801  -3.9690  -3.8550  -3.7805  -3.7121  -3.6139
    -3.4684  -3.3257   2.4582   2.6782   2.8390   2.8775   2.9716   3.0534
     3.0894   3.1238   3.2107   3.2892   3.3652   3.5541   3.6180   3.6684
     3.8073   3.8857   4.0776   4.2442   4.3027   4.4351   4.5718   4.6421
     4.7750   4.8414   4.9358   5.0379   5.0893   5.1320   5.2091   5.2726
     5.3397   5.4855   5.5454   5.6221   5.6920   5.7482   5.8363   5.9175
     6.0248   6.1598   6.1926   6.2991   6.4231   6.4921   6.5822   6.6552
     6.7661   6.8206   6.9291   7.0329   7.0850   7.2509   7.3476   7.3886
     7.5249   7.6920   7.8443   8.0348   8.1060   8.2587   8.2954   8.5841
     8.7553   8.9169   9.0658   9.1700   9.2573   9.4289   9.5762   9.7794
     9.8548   9.9401   9.9931  10.1250  10.3315  10.4680  10.5513  10.7316
    10.8099

          k = 0.3361-0.3072 0.0758 ( 16570 PWs)   bands (ev):

    -5.4810  -5.1868  -4.8920  -4.7759  -4.6943  -4.5770  -4.4614  -4.3154
    -4.2632  -4.1751  -4.0965  -3.9072  -3.8259  -3.7659  -3.6836  -3.5538
    -3.5176  -3.3108   2.5124   2.5300   2.7455   2.8779   2.9469   3.0058
     3.0998   3.1923   3.3023   3.3536   3.5085   3.5380   3.5765   3.6910
     3.8459   3.9283   4.0787   4.1852   4.3334   4.4292   4.4897   4.5581
     4.7003   4.7968   4.9357   4.9522   4.9936   5.1640   5.2187   5.2621
     5.3246   5.4166   5.5333   5.5756   5.6561   5.8598   5.9139   5.9573
     6.0032   6.1681   6.2651   6.3281   6.4480   6.5344   6.5988   6.7539
     6.7831   6.8724   6.9238   7.0683   7.1104   7.1665   7.3111   7.4332
     7.5945   7.7623   7.8584   8.0065   8.0738   8.1750   8.4069   8.5386
     8.7127   8.7784   8.9667   9.1663   9.2767   9.4863   9.6397   9.6612
     9.7754   9.9744  10.0630  10.2632  10.3951  10.4801  10.6573  10.7306
    10.8144

          k = 0.3375-0.3103-0.2019 ( 16552 PWs)   bands (ev):

    -5.4084  -5.1616  -5.0317  -4.9335  -4.5926  -4.5158  -4.4659  -4.3374
    -4.2290  -4.1443  -4.0086  -3.9543  -3.8429  -3.7795  -3.6807  -3.5947
    -3.4644  -3.3301   2.5516   2.5801   2.7204   2.8203   2.8851   3.0096
     3.0590   3.0910   3.2019   3.3378   3.3887   3.4858   3.5349   3.6527
     3.9316   4.0473   4.1709   4.3023   4.4264   4.4911   4.6267   4.7173
     4.7497   4.8537   4.9302   4.9892   5.1209   5.1875   5.2524   5.2816
     5.3227   5.4121   5.4604   5.5616   5.6596   5.6799   5.7473   5.8305
     5.9923   6.1375   6.2580   6.3082   6.3790   6.4903   6.5650   6.6409
     6.7911   6.8899   6.9821   7.0711   7.1760   7.2953   7.3077   7.4902
     7.5597   7.6819   7.8767   7.9138   8.1176   8.2927   8.3983   8.5404
     8.6443   8.7727   8.9316   9.1763   9.3868   9.4599   9.5172   9.7129
     9.8595   9.9370  10.1304  10.3016  10.3693  10.4262  10.5631  10.6452
    10.7636

     the Fermi energy is     8.7917 ev

!    total energy              =    -633.54942737 Ry
     Harris-Foulkes estimate   =    -633.54942769 Ry
     estimated scf accuracy    <       0.00000042 Ry

     The total energy is the sum of the following terms:

     one-electron contribution =     110.14037258 Ry
     hartree contribution      =      49.00748289 Ry
     xc contribution           =    -250.63280522 Ry
     ewald contribution        =    -542.06530281 Ry
     smearing contrib. (-TS)   =       0.00082519 Ry

     convergence has been achieved in  12 iterations

     Forces acting on atoms (cartesian axes, Ry/au):

     atom    1 type  1   force =     0.02026370    0.01624989    0.01372179
     atom    2 type  1   force =     0.00621994    0.00007127   -0.00720999
     atom    3 type  1   force =     0.00535370   -0.01353224    0.00280373
     atom    4 type  1   force =     0.00735229   -0.00447858    0.01936089
     atom    5 type  1   force =     0.01921054    0.00397462   -0.00374802
     atom    6 type  1   force =     0.01461515   -0.01862155    0.00319057
     atom    7 type  1   force =    -0.00199065   -0.00031134   -0.00589266
     atom    8 type  1   force =    -0.02460086    0.00239458   -0.00995868
     atom    9 type  1   force =    -0.00401769    0.01368463   -0.00734021
     atom   10 type  2   force =    -0.00749205    0.00270625   -0.01382284
     atom   11 type  2   force =    -0.01169568   -0.01230288   -0.02066590
     atom   12 type  2   force =    -0.01694575   -0.03703520    0.03161383
     atom   13 type  2   force =    -0.01436138   -0.00271232   -0.00697806
     atom   14 type  2   force =     0.00247730   -0.00318028    0.00640465
     atom   15 type  2   force =    -0.00293818    0.00253290   -0.00357939
     atom   16 type  2   force =     0.00668638    0.00935369   -0.00265543
     atom   17 type  2   force =    -0.00529354    0.00345522    0.00301108
     atom   18 type  2   force =     0.00201298    0.00192985   -0.01760549
     atom   19 type  2   force =    -0.01540974   -0.00339133    0.00015416
     atom   20 type  2   force =     0.00051066   -0.00150708   -0.00587550
     atom   21 type  2   force =     0.02376663    0.00579388    0.02646088
     atom   22 type  2   force =    -0.01386431    0.01253456    0.00135532
     atom   23 type  2   force =     0.00976269   -0.00509654    0.00738255
     atom   24 type  2   force =     0.01793638    0.02265409   -0.01068018
     atom   25 type  2   force =    -0.00918882    0.01104823   -0.01095909
     atom   26 type  2   force =    -0.00994853   -0.01037916    0.00841301
     atom   27 type  2   force =     0.00157882    0.00416484    0.00309898

     Total force =     0.108505     Total SCF correction =     0.001200
 
     init_run     :      2.32s CPU      2.42s WALL (       1 calls)
     electrons    :     52.12s CPU     53.16s WALL (       1 calls)
     forces       :      1.33s CPU      1.36s WALL (       1 calls)

     Called by init_run:
     wfcinit      :      1.47s CPU      1.52s WALL (       1 calls)
     potinit      :      0.24s CPU      0.24s WALL (       1 calls)
     hinit0       :      0.33s CPU      0.35s WALL (       1 calls)

     Called by electrons:
     c_bands      :     43.02s CPU     43.82s WALL (      12 calls)
     sum_band     :      6.97s CPU      7.15s WALL (      12 calls)
     v_of_rho     :      0.36s CPU      0.39s WALL (      13 calls)
     newd         :      1.53s CPU      1.56s WALL (      13 calls)
     mix_rho      :      0.31s CPU      0.31s WALL (      12 calls)

     Called by c_bands:
     init_us_2    :      0.83s CPU      0.85s WALL (     208 calls)
     cegterg      :     40.30s CPU     41.06s WALL (      96 calls)

     Called by sum_band:
     sum_band:bec :      0.12s CPU      0.12s WALL (      96 calls)
     addusdens    :      2.21s CPU      2.25s WALL (      12 calls)

     Called by *egterg:
     h_psi        :     19.52s CPU     20.06s WALL (     481 calls)
     s_psi        :      3.22s CPU      3.22s WALL (     481 calls)
     g_psi        :      0.06s CPU      0.06s WALL (     377 calls)
     cdiaghg      :     12.59s CPU     12.79s WALL (     473 calls)

     Called by h_psi:
     h_psi:pot    :     19.43s CPU     19.97s WALL (     481 calls)
     h_psi:calbec :      3.91s CPU      4.08s WALL (     481 calls)
     vloc_psi     :     12.22s CPU     12.57s WALL (     481 calls)
     add_vuspsi   :      3.29s CPU      3.31s WALL (     481 calls)

     General routines
     calbec       :      5.80s CPU      6.04s WALL (     609 calls)
     fft          :      0.31s CPU      0.35s WALL (     178 calls)
     ffts         :      0.19s CPU      0.19s WALL (     248 calls)
     fftw         :     13.78s CPU     14.19s WALL (   55504 calls)
     interpolate  :      0.03s CPU      0.03s WALL (      13 calls)
 
     Parallel routines
     fft_scatt_xy :      1.46s CPU      1.50s WALL (   55930 calls)
     fft_scatt_yz :      6.87s CPU      7.10s WALL (   55930 calls)
 
     PWSCF        :     56.44s CPU     57.71s WALL

 
   This run was terminated on:  10:40:45  28Nov2021            

=------------------------------------------------------------------------------=
   JOB DONE.
=------------------------------------------------------------------------------=
