
     Program PWSCF v.6.4 starts on 14Oct2021 at 10:10:19 

     This program is part of the open-source Quantum ESPRESSO suite
     for quantum simulation of materials; please cite
         "P. Giannozzi et al., J. Phys.:Condens. Matter 21 395502 (2009);
         "P. Giannozzi et al., J. Phys.:Condens. Matter 29 465901 (2017);
          URL http://www.quantum-espresso.org", 
     in publications or presentations arising from this work. More details at
     http://www.quantum-espresso.org/quote

     Parallel version (MPI), running on    40 processors

     MPI processes distributed on     1 nodes
     R & G space division:  proc/nbgrp/npool/nimage =      40
     Waiting for input...
     Reading input from standard input
Warning: card    &IONS ignored
Warning: card      ION_DYNAMICS = 'BFGS' ignored
Warning: card   / ignored
Warning: card    &CELL ignored
Warning: card      CELL_DYNAMICS = 'BFGS', ignored
Warning: card    / ignored

     Current dimensions of program PWSCF are:
     Max number of different atomic species (ntypx) = 10
     Max number of k-points (npk) =  40000
     Max angular momentum in pseudopotentials (lmaxx) =  3

     Subspace diagonalization in iterative solution of the eigenvalue problem:
     one sub-group per band group will be used
     scalapack distributed-memory algorithm (size of sub-group:  4*  4 procs)

 
     Parallelization info
     --------------------
     sticks:   dense  smooth     PW     G-vecs:    dense   smooth      PW
     Min          89      44     12                10750     3795     551
     Max          90      45     13                10762     3808     561
     Sum        3587    1795    503               430273   152097   22209
 


     bravais-lattice index     =            0
     lattice parameter (alat)  =      12.1464  a.u.
     unit-cell volume          =    3729.8417 (a.u.)^3
     number of atoms/cell      =           12
     number of atomic types    =            2
     number of electrons       =        72.00
     number of Kohn-Sham states=           43
     kinetic-energy cutoff     =      45.0000  Ry
     charge density cutoff     =     360.0000  Ry
     convergence threshold     =      1.0E-06
     mixing beta               =       0.7000
     number of iterations used =            8  local-TF  mixing
     Exchange-correlation      = SLA PW GGX GGC ( 1  4  2  2 0 0)

     celldm(1)=  12.146415  celldm(2)=   0.000000  celldm(3)=   0.000000
     celldm(4)=   0.000000  celldm(5)=   0.000000  celldm(6)=   0.000000

     crystal axes: (cart. coord. in units of alat)
               a(1) = (   1.000000   0.000000   0.000000 )  
               a(2) = (   0.485546   0.849086   0.000000 )  
               a(3) = (   0.162459   0.547500   2.451289 )  

     reciprocal axes: (cart. coord. in units 2 pi/alat)
               b(1) = (  1.000000 -0.571846  0.061448 )  
               b(2) = (  0.000000  1.177738 -0.263050 )  
               b(3) = (  0.000000  0.000000  0.407949 )  


     PseudoPot. # 1 for Mo read from file:
     ~/pseudo/Mo.pw91-n-van.UPF
     MD5 check sum: Not computed, couldn't open file
     Pseudo is Ultrasoft + core correction, Zval =  6.0
     Generated by new atomic code, or converted to UPF format
     Using radial grid of  965 points,  3 beta functions with: 
                l(1) =   1
                l(2) =   2
                l(3) =   2
     Q(r) pseudized with  8 coefficients,  rinner =    1.000   1.000   1.000
                                                       1.200   1.200

     PseudoPot. # 2 for S  read from file:
     ~/pseudo/S.pw91-van_ak.UPF
     MD5 check sum: Not computed, couldn't open file
     Pseudo is Ultrasoft, Zval =  6.0
     Generated by new atomic code, or converted to UPF format
     Using radial grid of  811 points,  6 beta functions with: 
                l(1) =   0
                l(2) =   0
                l(3) =   1
                l(4) =   1
                l(5) =   2
                l(6) =   2
     Q(r) pseudized with  8 coefficients,  rinner =    1.100   1.100   1.100
                                                       1.100   1.100

     atomic species   valence    mass     pseudopotential
        Mo             6.00    95.50000     Mo( 1.00)
        S              6.00    32.06500     S ( 1.00)

     No symmetry found



   Cartesian axes

     site n.     atom                  positions (alat units)
         1           Mo  tau(   1) = (   0.4925811   0.8518975   0.0143164  )
         2           Mo  tau(   2) = (   0.9849280   0.8359240   0.0126809  )
         3           Mo  tau(   3) = (   0.9131836   0.9787145   2.4497100  )
         4           Mo  tau(   4) = (   0.2391965   0.4282445   0.0113312  )
         5           S   tau(   5) = (   0.4120663   0.6848001   2.2228276  )
         6           S   tau(   6) = (   0.8994539   0.6758148   2.2165849  )
         7           S   tau(   7) = (   1.1550629   1.1057352   2.2044941  )
         8           S   tau(   8) = (   0.6445506   1.1170079   2.2116214  )
         9           S   tau(   9) = (   0.2610328   0.1512364   0.2591706  )
        10           S   tau(  10) = (   0.7581045   0.1523341   0.2451914  )
        11           S   tau(  11) = (   1.0022529   0.5623463   0.2636566  )
        12           S   tau(  12) = (   0.5131942   0.5691074   0.2439957  )

     number of k points=     5  Marzari-Vanderbilt smearing, width (Ry)=  0.0200
                       cart. coord. in units 2pi/alat
        k(    1) = (   0.0000000   0.0000000   0.0000000), wk =   0.2222222
        k(    2) = (   0.0000000   0.3925792  -0.0876833), wk =   0.4444444
        k(    3) = (   0.3333333  -0.1906154   0.0204827), wk =   0.4444444
        k(    4) = (   0.3333333   0.2019638  -0.0672006), wk =   0.4444444
        k(    5) = (   0.3333333  -0.5831946   0.1081660), wk =   0.4444444

     Dense  grid:   430273 G-vectors     FFT dimensions: (  75,  72, 192)

     Smooth grid:   152097 G-vectors     FFT dimensions: (  54,  54, 135)

     Estimated max dynamical RAM per process >      52.01 MB

     Estimated total dynamical RAM >       2.03 GB

     Initial potential from superposition of free atoms

     starting charge   71.99369, renormalised to   72.00000

     negative rho (up, down):  5.125E-04 0.000E+00
     Starting wfcs are   68 randomized atomic wfcs

     total cpu time spent up to now is        2.0 secs

     Self-consistent Calculation

     iteration #  1     ecut=    45.00 Ry     beta= 0.70
     Davidson diagonalization with overlap
     ethr =  1.00E-02,  avg # of iterations =  2.0

     negative rho (up, down):  8.896E-06 0.000E+00

     total cpu time spent up to now is        3.6 secs

     total energy              =    -281.40702110 Ry
     Harris-Foulkes estimate   =    -282.21909350 Ry
     estimated scf accuracy    <       2.06158591 Ry

     iteration #  2     ecut=    45.00 Ry     beta= 0.70
     Davidson diagonalization with overlap
     ethr =  2.86E-03,  avg # of iterations =  2.6

     negative rho (up, down):  9.449E-08 0.000E+00

     total cpu time spent up to now is        4.9 secs

     total energy              =    -281.78950722 Ry
     Harris-Foulkes estimate   =    -281.83648124 Ry
     estimated scf accuracy    <       0.25673678 Ry

     iteration #  3     ecut=    45.00 Ry     beta= 0.70
     Davidson diagonalization with overlap
     ethr =  3.57E-04,  avg # of iterations =  2.0

     total cpu time spent up to now is        6.0 secs

     total energy              =    -281.78153043 Ry
     Harris-Foulkes estimate   =    -281.81177653 Ry
     estimated scf accuracy    <       0.07698634 Ry

     iteration #  4     ecut=    45.00 Ry     beta= 0.70
     Davidson diagonalization with overlap
     ethr =  1.07E-04,  avg # of iterations =  3.0

     total cpu time spent up to now is        7.4 secs

     total energy              =    -281.79246661 Ry
     Harris-Foulkes estimate   =    -281.81473657 Ry
     estimated scf accuracy    <       0.06139303 Ry

     iteration #  5     ecut=    45.00 Ry     beta= 0.70
     Davidson diagonalization with overlap
     ethr =  8.53E-05,  avg # of iterations =  2.4

     total cpu time spent up to now is        8.6 secs

     total energy              =    -281.80320666 Ry
     Harris-Foulkes estimate   =    -281.80525243 Ry
     estimated scf accuracy    <       0.00880536 Ry

     iteration #  6     ecut=    45.00 Ry     beta= 0.70
     Davidson diagonalization with overlap
     ethr =  1.22E-05,  avg # of iterations = 11.0

     total cpu time spent up to now is       10.6 secs

     total energy              =    -281.80371416 Ry
     Harris-Foulkes estimate   =    -281.80427621 Ry
     estimated scf accuracy    <       0.00613170 Ry

     iteration #  7     ecut=    45.00 Ry     beta= 0.70
     Davidson diagonalization with overlap
     ethr =  8.52E-06,  avg # of iterations =  1.0

     total cpu time spent up to now is       11.7 secs

     total energy              =    -281.80398450 Ry
     Harris-Foulkes estimate   =    -281.80383017 Ry
     estimated scf accuracy    <       0.00323980 Ry

     iteration #  8     ecut=    45.00 Ry     beta= 0.70
     Davidson diagonalization with overlap
     ethr =  4.50E-06,  avg # of iterations =  5.6

     negative rho (up, down):  1.504E-05 0.000E+00

     total cpu time spent up to now is       13.3 secs

     total energy              =    -281.80508595 Ry
     Harris-Foulkes estimate   =    -281.80457016 Ry
     estimated scf accuracy    <       0.00040121 Ry

     iteration #  9     ecut=    45.00 Ry     beta= 0.70
     Davidson diagonalization with overlap
     ethr =  5.57E-07,  avg # of iterations =  2.0

     negative rho (up, down):  2.862E-04 0.000E+00

     total cpu time spent up to now is       14.8 secs

     total energy              =    -281.80517278 Ry
     Harris-Foulkes estimate   =    -281.80512827 Ry
     estimated scf accuracy    <       0.00028584 Ry

     iteration # 10     ecut=    45.00 Ry     beta= 0.70
     Davidson diagonalization with overlap
     ethr =  3.97E-07,  avg # of iterations =  1.0

     negative rho (up, down):  5.189E-04 0.000E+00

     total cpu time spent up to now is       16.2 secs

     total energy              =    -281.80511981 Ry
     Harris-Foulkes estimate   =    -281.80517588 Ry
     estimated scf accuracy    <       0.00022775 Ry

     iteration # 11     ecut=    45.00 Ry     beta= 0.70
     Davidson diagonalization with overlap
     ethr =  3.16E-07,  avg # of iterations =  2.0

     negative rho (up, down):  6.041E-04 0.000E+00

     total cpu time spent up to now is       17.6 secs

     total energy              =    -281.80514824 Ry
     Harris-Foulkes estimate   =    -281.80514769 Ry
     estimated scf accuracy    <       0.00000260 Ry

     iteration # 12     ecut=    45.00 Ry     beta= 0.70
     Davidson diagonalization with overlap
     ethr =  3.61E-09,  avg # of iterations =  4.2

     negative rho (up, down):  7.226E-04 0.000E+00

     total cpu time spent up to now is       19.1 secs

     End of self-consistent calculation

          k = 0.0000 0.0000 0.0000 ( 19007 PWs)   bands (ev):

   -14.6150 -13.3954 -12.8340 -12.7935 -12.7078 -12.6245 -12.4789 -12.4296
    -6.2773  -6.2311  -6.2013  -6.0653  -5.3361  -5.3209  -5.2260  -4.5802
    -4.5572  -4.5122  -3.7302  -3.6913  -3.4135  -3.2258  -2.9611  -2.6912
    -2.3461  -2.2840  -2.1193  -2.0453  -1.7677  -1.5493  -1.4388  -1.2367
    -1.1667  -1.0344  -1.0255  -0.5432   1.5313   1.5489   1.7548   2.1155
     2.1487   2.1656   2.2146

          k = 0.0000 0.3926-0.0877 ( 18988 PWs)   bands (ev):

   -14.2245 -13.3354 -13.1769 -12.8615 -12.7957 -12.7359 -12.5634 -12.4606
    -5.7938  -5.7427  -5.6788  -5.6326  -5.3607  -5.3047  -4.6639  -4.3928
    -4.3054  -4.2711  -3.8036  -3.6644  -3.6051  -3.4059  -3.2872  -2.9370
    -2.8274  -2.6744  -2.5481  -2.3660  -2.1356  -2.0624  -1.8191  -1.4883
    -1.4443  -1.0916  -0.8253  -0.6812   1.3457   1.4467   1.6653   1.8029
     1.8791   1.9677   2.0977

          k = 0.3333-0.1906 0.0205 ( 19057 PWs)   bands (ev):

   -14.2432 -13.3761 -13.2250 -12.8883 -12.7679 -12.7052 -12.4919 -12.4118
    -5.8423  -5.7740  -5.7092  -5.6450  -5.4002  -5.3931  -4.6907  -4.4639
    -4.3119  -4.2527  -3.9348  -3.8145  -3.6895  -3.3757  -3.1385  -2.8927
    -2.7205  -2.5197  -2.3683  -2.3342  -2.0884  -2.0554  -1.6487  -1.5782
    -1.5139  -1.0751  -0.9276  -0.8085   1.3698   1.5545   1.7229   1.7947
     1.8298   1.9938   2.1974

          k = 0.3333 0.2020-0.0672 ( 18998 PWs)   bands (ev):

   -14.2326 -13.3578 -13.1822 -12.8532 -12.7961 -12.7205 -12.5744 -12.4262
    -5.8198  -5.7387  -5.7081  -5.6385  -5.3479  -5.3001  -4.6785  -4.4261
    -4.3063  -4.2687  -3.8132  -3.7547  -3.6292  -3.3747  -3.2595  -2.9369
    -2.7439  -2.6960  -2.4726  -2.3789  -2.1278  -2.0663  -1.7669  -1.5459
    -1.3682  -1.1644  -0.8221  -0.6718   1.3733   1.4978   1.6150   1.8068
     1.9136   2.0072   2.0957

          k = 0.3333-0.5832 0.1082 ( 19028 PWs)   bands (ev):

   -13.6172 -13.5912 -13.5599 -12.9633 -12.8910 -12.7986 -12.5027 -12.3274
    -5.8611  -5.4238  -5.3843  -5.3582  -5.0295  -4.5788  -4.4542  -4.2907
    -4.2316  -4.1971  -4.1132  -4.0395  -4.0129  -3.7125  -3.5968  -3.5151
    -3.3331  -2.6889  -2.5669  -2.3587  -2.2214  -1.6840  -1.5722  -1.5087
    -1.3215  -1.2248  -1.1909  -0.4239   0.9930   1.2765   1.3268   1.4972
     1.8287   1.8531   1.9739

     the Fermi energy is    -0.3317 ev

!    total energy              =    -281.80515259 Ry
     Harris-Foulkes estimate   =    -281.80515044 Ry
     estimated scf accuracy    <       0.00000037 Ry

     The total energy is the sum of the following terms:

     one-electron contribution =   -1177.14911674 Ry
     hartree contribution      =     611.68167437 Ry
     xc contribution           =    -111.59790177 Ry
     ewald contribution        =     395.25364452 Ry
     smearing contrib. (-TS)   =       0.00654703 Ry

     convergence has been achieved in  12 iterations

     negative rho (up, down):  7.226E-04 0.000E+00

     Forces acting on atoms (cartesian axes, Ry/au):

     atom    1 type  1   force =    -0.01898135    0.00795058   -0.03568404
     atom    2 type  1   force =     0.01667304    0.05554636   -0.00112965
     atom    3 type  1   force =    -0.01934531   -0.04187106    0.00407637
     atom    4 type  1   force =     0.05205588   -0.00613783   -0.01541160
     atom    5 type  2   force =     0.00754373    0.00757945   -0.02412184
     atom    6 type  2   force =     0.03280619    0.02160947   -0.00736349
     atom    7 type  2   force =     0.01079477    0.01432887   -0.00533989
     atom    8 type  2   force =     0.02102650    0.00093416   -0.00074235
     atom    9 type  2   force =    -0.01400629   -0.02499598    0.01131442
     atom   10 type  2   force =    -0.02237690   -0.02092739    0.02889100
     atom   11 type  2   force =    -0.02643229   -0.00254877    0.00180306
     atom   12 type  2   force =    -0.03975795   -0.01146785    0.04370802

     Total force =     0.142589     Total SCF correction =     0.001087
 
     init_run     :      1.32s CPU      1.37s WALL (       1 calls)
     electrons    :     16.89s CPU     17.17s WALL (       1 calls)
     forces       :      0.67s CPU      0.68s WALL (       1 calls)

     Called by init_run:
     wfcinit      :      0.40s CPU      0.41s WALL (       1 calls)
     potinit      :      0.27s CPU      0.27s WALL (       1 calls)
     hinit0       :      0.35s CPU      0.37s WALL (       1 calls)

     Called by electrons:
     c_bands      :      9.54s CPU      9.68s WALL (      12 calls)
     sum_band     :      3.22s CPU      3.27s WALL (      12 calls)
     v_of_rho     :      0.43s CPU      0.46s WALL (      13 calls)
     newd         :      1.68s CPU      1.71s WALL (      13 calls)
     mix_rho      :      2.09s CPU      2.12s WALL (      12 calls)

     Called by c_bands:
     init_us_2    :      0.15s CPU      0.15s WALL (     130 calls)
     cegterg      :      8.85s CPU      8.98s WALL (      60 calls)

     Called by sum_band:
     sum_band:bec :      0.01s CPU      0.01s WALL (      60 calls)
     addusdens    :      1.93s CPU      1.95s WALL (      12 calls)

     Called by *egterg:
     h_psi        :      5.10s CPU      5.20s WALL (     259 calls)
     s_psi        :      0.41s CPU      0.42s WALL (     259 calls)
     g_psi        :      0.01s CPU      0.01s WALL (     194 calls)
     cdiaghg      :      2.46s CPU      2.49s WALL (     254 calls)

     Called by h_psi:
     h_psi:pot    :      5.08s CPU      5.18s WALL (     259 calls)
     h_psi:calbec :      0.54s CPU      0.55s WALL (     259 calls)
     vloc_psi     :      4.11s CPU      4.19s WALL (     259 calls)
     add_vuspsi   :      0.43s CPU      0.43s WALL (     259 calls)

     General routines
     calbec       :      0.78s CPU      0.79s WALL (     339 calls)
     fft          :      0.45s CPU      0.48s WALL (     178 calls)
     ffts         :      1.13s CPU      1.15s WALL (    1986 calls)
     fftw         :      4.69s CPU      4.79s WALL (   16120 calls)
     interpolate  :      0.04s CPU      0.04s WALL (      13 calls)
 
     Parallel routines
     fft_scatt_xy :      0.43s CPU      0.44s WALL (   18284 calls)
     fft_scatt_yz :      3.46s CPU      3.56s WALL (   18284 calls)
 
     PWSCF        :     19.46s CPU     19.93s WALL

 
   This run was terminated on:  10:10:39  14Oct2021            

=------------------------------------------------------------------------------=
   JOB DONE.
=------------------------------------------------------------------------------=

     Program PWSCF v.6.4 starts on 14Oct2021 at 10:54:48 

     This program is part of the open-source Quantum ESPRESSO suite
     for quantum simulation of materials; please cite
         "P. Giannozzi et al., J. Phys.:Condens. Matter 21 395502 (2009);
         "P. Giannozzi et al., J. Phys.:Condens. Matter 29 465901 (2017);
          URL http://www.quantum-espresso.org", 
     in publications or presentations arising from this work. More details at
     http://www.quantum-espresso.org/quote

     Parallel version (MPI), running on    40 processors

     MPI processes distributed on     1 nodes
     R & G space division:  proc/nbgrp/npool/nimage =      40
     Waiting for input...
     Reading input from standard input
Warning: card    &IONS ignored
Warning: card      ION_DYNAMICS = 'BFGS' ignored
Warning: card   / ignored
Warning: card    &CELL ignored
Warning: card      CELL_DYNAMICS = 'BFGS', ignored
Warning: card    / ignored

     Current dimensions of program PWSCF are:
     Max number of different atomic species (ntypx) = 10
     Max number of k-points (npk) =  40000
     Max angular momentum in pseudopotentials (lmaxx) =  3

     Subspace diagonalization in iterative solution of the eigenvalue problem:
     one sub-group per band group will be used
     scalapack distributed-memory algorithm (size of sub-group:  4*  4 procs)

 
     Parallelization info
     --------------------
     sticks:   dense  smooth     PW     G-vecs:    dense   smooth      PW
     Min          89      44     12                10750     3795     551
     Max          90      45     13                10762     3808     561
     Sum        3587    1795    503               430273   152097   22209
 


     bravais-lattice index     =            0
     lattice parameter (alat)  =      12.1464  a.u.
     unit-cell volume          =    3729.8417 (a.u.)^3
     number of atoms/cell      =           12
     number of atomic types    =            2
     number of electrons       =        72.00
     number of Kohn-Sham states=           43
     kinetic-energy cutoff     =      45.0000  Ry
     charge density cutoff     =     360.0000  Ry
     convergence threshold     =      1.0E-06
     mixing beta               =       0.7000
     number of iterations used =            8  local-TF  mixing
     Exchange-correlation      = SLA PW GGX GGC ( 1  4  2  2 0 0)

     celldm(1)=  12.146415  celldm(2)=   0.000000  celldm(3)=   0.000000
     celldm(4)=   0.000000  celldm(5)=   0.000000  celldm(6)=   0.000000

     crystal axes: (cart. coord. in units of alat)
               a(1) = (   1.000000   0.000000   0.000000 )  
               a(2) = (   0.485546   0.849086   0.000000 )  
               a(3) = (   0.162459   0.547500   2.451289 )  

     reciprocal axes: (cart. coord. in units 2 pi/alat)
               b(1) = (  1.000000 -0.571846  0.061448 )  
               b(2) = (  0.000000  1.177738 -0.263050 )  
               b(3) = (  0.000000  0.000000  0.407949 )  


     PseudoPot. # 1 for Mo read from file:
     ~/pseudo/Mo.pw91-n-van.UPF
     MD5 check sum: Not computed, couldn't open file
     Pseudo is Ultrasoft + core correction, Zval =  6.0
     Generated by new atomic code, or converted to UPF format
     Using radial grid of  965 points,  3 beta functions with: 
                l(1) =   1
                l(2) =   2
                l(3) =   2
     Q(r) pseudized with  8 coefficients,  rinner =    1.000   1.000   1.000
                                                       1.200   1.200

     PseudoPot. # 2 for S  read from file:
     ~/pseudo/S.pw91-van_ak.UPF
     MD5 check sum: Not computed, couldn't open file
     Pseudo is Ultrasoft, Zval =  6.0
     Generated by new atomic code, or converted to UPF format
     Using radial grid of  811 points,  6 beta functions with: 
                l(1) =   0
                l(2) =   0
                l(3) =   1
                l(4) =   1
                l(5) =   2
                l(6) =   2
     Q(r) pseudized with  8 coefficients,  rinner =    1.100   1.100   1.100
                                                       1.100   1.100

     atomic species   valence    mass     pseudopotential
        Mo             6.00    95.50000     Mo( 1.00)
        S              6.00    32.06500     S ( 1.00)

     No symmetry found



   Cartesian axes

     site n.     atom                  positions (alat units)
         1           Mo  tau(   1) = (   0.4925811   0.8518975   0.0143164  )
         2           Mo  tau(   2) = (   0.9849280   0.8359240   0.0126809  )
         3           Mo  tau(   3) = (   0.9131836   0.9787145   2.4497100  )
         4           Mo  tau(   4) = (   0.2391965   0.4282445   0.0113312  )
         5           S   tau(   5) = (   0.4120663   0.6848001   2.2228276  )
         6           S   tau(   6) = (   0.8994539   0.6758148   2.2165849  )
         7           S   tau(   7) = (   1.1550629   1.1057352   2.2044941  )
         8           S   tau(   8) = (   0.6445506   1.1170079   2.2116214  )
         9           S   tau(   9) = (   0.2610328   0.1512364   0.2591706  )
        10           S   tau(  10) = (   0.7581045   0.1523341   0.2451914  )
        11           S   tau(  11) = (   1.0022529   0.5623463   0.2636566  )
        12           S   tau(  12) = (   0.5131942   0.5691074   0.2439957  )

     number of k points=     5  Marzari-Vanderbilt smearing, width (Ry)=  0.0200
                       cart. coord. in units 2pi/alat
        k(    1) = (   0.0000000   0.0000000   0.0000000), wk =   0.2222222
        k(    2) = (   0.0000000   0.3925792  -0.0876833), wk =   0.4444444
        k(    3) = (   0.3333333  -0.1906154   0.0204827), wk =   0.4444444
        k(    4) = (   0.3333333   0.2019638  -0.0672006), wk =   0.4444444
        k(    5) = (   0.3333333  -0.5831946   0.1081660), wk =   0.4444444

     Dense  grid:   430273 G-vectors     FFT dimensions: (  75,  72, 192)

     Smooth grid:   152097 G-vectors     FFT dimensions: (  54,  54, 135)

     Estimated max dynamical RAM per process >      52.01 MB

     Estimated total dynamical RAM >       2.03 GB

     Initial potential from superposition of free atoms

     starting charge   71.99369, renormalised to   72.00000

     negative rho (up, down):  5.125E-04 0.000E+00
     Starting wfcs are   68 randomized atomic wfcs

     total cpu time spent up to now is        2.2 secs

     Self-consistent Calculation

     iteration #  1     ecut=    45.00 Ry     beta= 0.70
     Davidson diagonalization with overlap
     ethr =  1.00E-02,  avg # of iterations =  2.0

     negative rho (up, down):  8.896E-06 0.000E+00

     total cpu time spent up to now is        4.1 secs

     total energy              =    -281.40702110 Ry
     Harris-Foulkes estimate   =    -282.21909350 Ry
     estimated scf accuracy    <       2.06158591 Ry

     iteration #  2     ecut=    45.00 Ry     beta= 0.70
     Davidson diagonalization with overlap
     ethr =  2.86E-03,  avg # of iterations =  2.6

     negative rho (up, down):  9.449E-08 0.000E+00

     total cpu time spent up to now is        5.7 secs

     total energy              =    -281.78950722 Ry
     Harris-Foulkes estimate   =    -281.83648124 Ry
     estimated scf accuracy    <       0.25673678 Ry

     iteration #  3     ecut=    45.00 Ry     beta= 0.70
     Davidson diagonalization with overlap
     ethr =  3.57E-04,  avg # of iterations =  2.0

     total cpu time spent up to now is        7.0 secs

     total energy              =    -281.78153043 Ry
     Harris-Foulkes estimate   =    -281.81177653 Ry
     estimated scf accuracy    <       0.07698634 Ry

     iteration #  4     ecut=    45.00 Ry     beta= 0.70
     Davidson diagonalization with overlap
     ethr =  1.07E-04,  avg # of iterations =  3.0

     total cpu time spent up to now is        8.5 secs

     total energy              =    -281.79246661 Ry
     Harris-Foulkes estimate   =    -281.81473657 Ry
     estimated scf accuracy    <       0.06139303 Ry

     iteration #  5     ecut=    45.00 Ry     beta= 0.70
     Davidson diagonalization with overlap
     ethr =  8.53E-05,  avg # of iterations =  2.4

     total cpu time spent up to now is        9.9 secs

     total energy              =    -281.80320666 Ry
     Harris-Foulkes estimate   =    -281.80525243 Ry
     estimated scf accuracy    <       0.00880536 Ry

     iteration #  6     ecut=    45.00 Ry     beta= 0.70
     Davidson diagonalization with overlap
     ethr =  1.22E-05,  avg # of iterations = 11.0

     total cpu time spent up to now is       12.2 secs

     total energy              =    -281.80371416 Ry
     Harris-Foulkes estimate   =    -281.80427621 Ry
     estimated scf accuracy    <       0.00613170 Ry

     iteration #  7     ecut=    45.00 Ry     beta= 0.70
     Davidson diagonalization with overlap
     ethr =  8.52E-06,  avg # of iterations =  1.0

     total cpu time spent up to now is       13.4 secs

     total energy              =    -281.80398450 Ry
     Harris-Foulkes estimate   =    -281.80383017 Ry
     estimated scf accuracy    <       0.00323980 Ry

     iteration #  8     ecut=    45.00 Ry     beta= 0.70
     Davidson diagonalization with overlap
     ethr =  4.50E-06,  avg # of iterations =  5.6

     negative rho (up, down):  1.504E-05 0.000E+00

     total cpu time spent up to now is       15.3 secs

     total energy              =    -281.80508595 Ry
     Harris-Foulkes estimate   =    -281.80457016 Ry
     estimated scf accuracy    <       0.00040121 Ry

     iteration #  9     ecut=    45.00 Ry     beta= 0.70
     Davidson diagonalization with overlap
     ethr =  5.57E-07,  avg # of iterations =  2.0

     negative rho (up, down):  2.862E-04 0.000E+00

     total cpu time spent up to now is       17.1 secs

     total energy              =    -281.80517278 Ry
     Harris-Foulkes estimate   =    -281.80512827 Ry
     estimated scf accuracy    <       0.00028584 Ry

     iteration # 10     ecut=    45.00 Ry     beta= 0.70
     Davidson diagonalization with overlap
     ethr =  3.97E-07,  avg # of iterations =  1.0

     negative rho (up, down):  5.190E-04 0.000E+00

     total cpu time spent up to now is       18.8 secs

     total energy              =    -281.80511982 Ry
     Harris-Foulkes estimate   =    -281.80517588 Ry
     estimated scf accuracy    <       0.00022775 Ry

     iteration # 11     ecut=    45.00 Ry     beta= 0.70
     Davidson diagonalization with overlap
     ethr =  3.16E-07,  avg # of iterations =  2.0

     negative rho (up, down):  6.040E-04 0.000E+00

     total cpu time spent up to now is       20.5 secs

     total energy              =    -281.80514824 Ry
     Harris-Foulkes estimate   =    -281.80514770 Ry
     estimated scf accuracy    <       0.00000260 Ry

     iteration # 12     ecut=    45.00 Ry     beta= 0.70
     Davidson diagonalization with overlap
     ethr =  3.61E-09,  avg # of iterations =  4.2

     negative rho (up, down):  7.226E-04 0.000E+00

     total cpu time spent up to now is       22.2 secs

     End of self-consistent calculation

          k = 0.0000 0.0000 0.0000 ( 19007 PWs)   bands (ev):

   -14.6150 -13.3954 -12.8340 -12.7935 -12.7078 -12.6245 -12.4789 -12.4296
    -6.2773  -6.2311  -6.2013  -6.0653  -5.3361  -5.3209  -5.2260  -4.5802
    -4.5572  -4.5122  -3.7302  -3.6913  -3.4135  -3.2258  -2.9611  -2.6912
    -2.3461  -2.2840  -2.1193  -2.0453  -1.7677  -1.5493  -1.4388  -1.2367
    -1.1667  -1.0344  -1.0255  -0.5432   1.5313   1.5489   1.7548   2.1155
     2.1487   2.1656   2.2146

          k = 0.0000 0.3926-0.0877 ( 18988 PWs)   bands (ev):

   -14.2245 -13.3354 -13.1769 -12.8615 -12.7957 -12.7359 -12.5634 -12.4606
    -5.7938  -5.7427  -5.6788  -5.6326  -5.3607  -5.3047  -4.6639  -4.3928
    -4.3054  -4.2711  -3.8036  -3.6644  -3.6051  -3.4059  -3.2872  -2.9370
    -2.8274  -2.6744  -2.5481  -2.3660  -2.1356  -2.0624  -1.8191  -1.4883
    -1.4443  -1.0916  -0.8253  -0.6812   1.3457   1.4466   1.6653   1.8029
     1.8791   1.9677   2.0977

          k = 0.3333-0.1906 0.0205 ( 19057 PWs)   bands (ev):

   -14.2432 -13.3761 -13.2250 -12.8883 -12.7679 -12.7052 -12.4919 -12.4118
    -5.8423  -5.7740  -5.7092  -5.6450  -5.4002  -5.3931  -4.6907  -4.4639
    -4.3119  -4.2527  -3.9348  -3.8145  -3.6895  -3.3757  -3.1385  -2.8927
    -2.7205  -2.5197  -2.3683  -2.3342  -2.0884  -2.0554  -1.6487  -1.5782
    -1.5139  -1.0751  -0.9276  -0.8085   1.3698   1.5545   1.7229   1.7947
     1.8298   1.9938   2.1974

          k = 0.3333 0.2020-0.0672 ( 18998 PWs)   bands (ev):

   -14.2326 -13.3578 -13.1822 -12.8532 -12.7961 -12.7205 -12.5744 -12.4262
    -5.8198  -5.7387  -5.7081  -5.6385  -5.3479  -5.3001  -4.6785  -4.4261
    -4.3063  -4.2687  -3.8132  -3.7547  -3.6292  -3.3747  -3.2595  -2.9369
    -2.7439  -2.6960  -2.4726  -2.3789  -2.1278  -2.0663  -1.7669  -1.5459
    -1.3682  -1.1644  -0.8221  -0.6718   1.3733   1.4978   1.6150   1.8068
     1.9136   2.0072   2.0957

          k = 0.3333-0.5832 0.1082 ( 19028 PWs)   bands (ev):

   -13.6172 -13.5912 -13.5599 -12.9633 -12.8910 -12.7986 -12.5027 -12.3274
    -5.8611  -5.4238  -5.3843  -5.3582  -5.0295  -4.5788  -4.4542  -4.2907
    -4.2316  -4.1971  -4.1132  -4.0395  -4.0129  -3.7125  -3.5968  -3.5151
    -3.3331  -2.6889  -2.5669  -2.3587  -2.2214  -1.6840  -1.5722  -1.5087
    -1.3215  -1.2248  -1.1909  -0.4239   0.9930   1.2765   1.3268   1.4972
     1.8287   1.8531   1.9739

     the Fermi energy is    -0.3317 ev

!    total energy              =    -281.80515259 Ry
     Harris-Foulkes estimate   =    -281.80515044 Ry
     estimated scf accuracy    <       0.00000037 Ry

     The total energy is the sum of the following terms:

     one-electron contribution =   -1177.14911342 Ry
     hartree contribution      =     611.68167096 Ry
     xc contribution           =    -111.59790168 Ry
     ewald contribution        =     395.25364452 Ry
     smearing contrib. (-TS)   =       0.00654703 Ry

     convergence has been achieved in  12 iterations

     negative rho (up, down):  7.226E-04 0.000E+00

     Forces acting on atoms (cartesian axes, Ry/au):

     atom    1 type  1   force =    -0.01898135    0.00795058   -0.03568404
     atom    2 type  1   force =     0.01667304    0.05554636   -0.00112966
     atom    3 type  1   force =    -0.01934531   -0.04187106    0.00407636
     atom    4 type  1   force =     0.05205588   -0.00613783   -0.01541160
     atom    5 type  2   force =     0.00754373    0.00757945   -0.02412186
     atom    6 type  2   force =     0.03280618    0.02160947   -0.00736351
     atom    7 type  2   force =     0.01079478    0.01432887   -0.00533990
     atom    8 type  2   force =     0.02102649    0.00093416   -0.00074236
     atom    9 type  2   force =    -0.01400628   -0.02499598    0.01131444
     atom   10 type  2   force =    -0.02237691   -0.02092739    0.02889102
     atom   11 type  2   force =    -0.02643229   -0.00254877    0.00180307
     atom   12 type  2   force =    -0.03975796   -0.01146785    0.04370804

     Total force =     0.142589     Total SCF correction =     0.001086
 
     init_run     :      1.44s CPU      1.50s WALL (       1 calls)
     electrons    :     19.74s CPU     20.03s WALL (       1 calls)
     forces       :      0.79s CPU      0.79s WALL (       1 calls)

     Called by init_run:
     wfcinit      :      0.40s CPU      0.41s WALL (       1 calls)
     potinit      :      0.28s CPU      0.29s WALL (       1 calls)
     hinit0       :      0.39s CPU      0.40s WALL (       1 calls)

     Called by electrons:
     c_bands      :     10.36s CPU     10.50s WALL (      12 calls)
     sum_band     :      4.29s CPU      4.38s WALL (      12 calls)
     v_of_rho     :      0.51s CPU      0.54s WALL (      13 calls)
     newd         :      1.84s CPU      1.86s WALL (      13 calls)
     mix_rho      :      2.83s CPU      2.86s WALL (      12 calls)

     Called by c_bands:
     init_us_2    :      0.25s CPU      0.26s WALL (     130 calls)
     cegterg      :      9.48s CPU      9.62s WALL (      60 calls)

     Called by sum_band:
     sum_band:bec :      0.01s CPU      0.01s WALL (      60 calls)
     addusdens    :      2.92s CPU      2.97s WALL (      12 calls)

     Called by *egterg:
     h_psi        :      5.54s CPU      5.64s WALL (     259 calls)
     s_psi        :      0.49s CPU      0.49s WALL (     259 calls)
     g_psi        :      0.02s CPU      0.02s WALL (     194 calls)
     cdiaghg      :      2.42s CPU      2.44s WALL (     254 calls)

     Called by h_psi:
     h_psi:pot    :      5.51s CPU      5.61s WALL (     259 calls)
     h_psi:calbec :      0.69s CPU      0.70s WALL (     259 calls)
     vloc_psi     :      4.31s CPU      4.40s WALL (     259 calls)
     add_vuspsi   :      0.51s CPU      0.51s WALL (     259 calls)

     General routines
     calbec       :      0.95s CPU      0.97s WALL (     339 calls)
     fft          :      0.43s CPU      0.45s WALL (     178 calls)
     ffts         :      1.36s CPU      1.37s WALL (    1986 calls)
     fftw         :      4.83s CPU      4.94s WALL (   16120 calls)
     interpolate  :      0.04s CPU      0.05s WALL (      13 calls)
 
     Parallel routines
     fft_scatt_xy :      0.60s CPU      0.61s WALL (   18284 calls)
     fft_scatt_yz :      3.27s CPU      3.35s WALL (   18284 calls)
 
     PWSCF        :     22.66s CPU     23.12s WALL

 
   This run was terminated on:  10:55:11  14Oct2021            

=------------------------------------------------------------------------------=
   JOB DONE.
=------------------------------------------------------------------------------=
