
     Program PWSCF v.6.4 starts on 19Oct2021 at 18:48:33 

     This program is part of the open-source Quantum ESPRESSO suite
     for quantum simulation of materials; please cite
         "P. Giannozzi et al., J. Phys.:Condens. Matter 21 395502 (2009);
         "P. Giannozzi et al., J. Phys.:Condens. Matter 29 465901 (2017);
          URL http://www.quantum-espresso.org", 
     in publications or presentations arising from this work. More details at
     http://www.quantum-espresso.org/quote

     Parallel version (MPI), running on    40 processors

     MPI processes distributed on     1 nodes
     R & G space division:  proc/nbgrp/npool/nimage =      40
     Waiting for input...
     Reading input from standard input
Warning: card    &IONS ignored
Warning: card      ION_DYNAMICS = 'BFGS' ignored
Warning: card   / ignored
Warning: card    &CELL ignored
Warning: card      CELL_DYNAMICS = 'BFGS', ignored
Warning: card    / ignored

     Current dimensions of program PWSCF are:
     Max number of different atomic species (ntypx) = 10
     Max number of k-points (npk) =  40000
     Max angular momentum in pseudopotentials (lmaxx) =  3

     gamma-point specific algorithms are used

     Subspace diagonalization in iterative solution of the eigenvalue problem:
     one sub-group per band group will be used
     scalapack distributed-memory algorithm (size of sub-group:  4*  4 procs)

 
     Parallelization info
     --------------------
     sticks:   dense  smooth     PW     G-vecs:    dense   smooth      PW
     Min        1192     596    148               190624    67396    8420
     Max        1194     598    150               190638    67410    8430
     Sum       47743   23873   5965              7625213  2696037  337005
 


     bravais-lattice index     =            0
     lattice parameter (alat)  =      44.7445  a.u.
     unit-cell volume          =   66104.4245 (a.u.)^3
     number of atoms/cell      =           30
     number of atomic types    =            2
     number of electrons       =       180.00
     number of Kohn-Sham states=          108
     kinetic-energy cutoff     =      45.0000  Ry
     charge density cutoff     =     360.0000  Ry
     convergence threshold     =      1.0E-06
     mixing beta               =       0.7000
     number of iterations used =            8  local-TF  mixing
     Exchange-correlation      = SLA PW GGX GGC ( 1  4  2  2 0 0)

     celldm(1)=  44.744549  celldm(2)=   0.000000  celldm(3)=   0.000000
     celldm(4)=   0.000000  celldm(5)=   0.000000  celldm(6)=   0.000000

     crystal axes: (cart. coord. in units of alat)
               a(1) = (   1.000000   0.000000   0.000000 )  
               a(2) = (   0.000000   0.832171   0.000000 )  
               a(3) = (   0.000000   0.000000   0.886742 )  

     reciprocal axes: (cart. coord. in units 2 pi/alat)
               b(1) = (  1.000000  0.000000  0.000000 )  
               b(2) = (  0.000000  1.201676  0.000000 )  
               b(3) = (  0.000000  0.000000  1.127723 )  


     PseudoPot. # 1 for Mo read from file:
     ~/pseudo/Mo.pw91-n-van.UPF
     MD5 check sum: Not computed, couldn't open file
     Pseudo is Ultrasoft + core correction, Zval =  6.0
     Generated by new atomic code, or converted to UPF format
     Using radial grid of  965 points,  3 beta functions with: 
                l(1) =   1
                l(2) =   2
                l(3) =   2
     Q(r) pseudized with  8 coefficients,  rinner =    1.000   1.000   1.000
                                                       1.200   1.200

     PseudoPot. # 2 for S  read from file:
     ~/pseudo/S.pw91-van_ak.UPF
     MD5 check sum: Not computed, couldn't open file
     Pseudo is Ultrasoft, Zval =  6.0
     Generated by new atomic code, or converted to UPF format
     Using radial grid of  811 points,  6 beta functions with: 
                l(1) =   0
                l(2) =   0
                l(3) =   1
                l(4) =   1
                l(5) =   2
                l(6) =   2
     Q(r) pseudized with  8 coefficients,  rinner =    1.100   1.100   1.100
                                                       1.100   1.100

     atomic species   valence    mass     pseudopotential
        Mo             6.00    95.50000     Mo( 1.00)
        S              6.00    32.06500     S ( 1.00)

     No symmetry found



   Cartesian axes

     site n.     atom                  positions (alat units)
         1           Mo  tau(   1) = (   0.5266510   0.3353324   0.3714298  )
         2           Mo  tau(   2) = (   0.4927565   0.2952514   0.4891478  )
         3           Mo  tau(   3) = (   0.5164477   0.3919462   0.5763264  )
         4           Mo  tau(   4) = (   0.4282541   0.4860867   0.5497446  )
         5           Mo  tau(   5) = (   0.3360632   0.5251926   0.4797287  )
         6           Mo  tau(   6) = (   0.4391083   0.4924333   0.4323565  )
         7           Mo  tau(   7) = (   0.4187577   0.3668742   0.4115060  )
         8           Mo  tau(   8) = (   0.5719126   0.4220341   0.3000197  )
         9           Mo  tau(   9) = (   0.6569599   0.4716377   0.4028567  )
        10           Mo  tau(  10) = (   0.5595167   0.4628144   0.4810449  )
        11           S   tau(  11) = (   0.3878460   0.5787692   0.4192955  )
        12           S   tau(  12) = (   0.5480881   0.2534020   0.4222797  )
        13           S   tau(  13) = (   0.6317425   0.3901625   0.4456814  )
        14           S   tau(  14) = (   0.6496059   0.4820908   0.3063310  )
        15           S   tau(  15) = (   0.3746884   0.4358705   0.4824835  )
        16           S   tau(  16) = (   0.4031403   0.2761703   0.4581396  )
        17           S   tau(  17) = (   0.4892056   0.3899661   0.4823427  )
        18           S   tau(  18) = (   0.7465980   0.4730469   0.4194901  )
        19           S   tau(  19) = (   0.5189909   0.2954397   0.5865530  )
        20           S   tau(  20) = (   0.4960758   0.5428624   0.5087166  )
        21           S   tau(  21) = (   0.5814001   0.3258951   0.2881142  )
        22           S   tau(  22) = (   0.6093982   0.5437686   0.4467233  )
        23           S   tau(  23) = (   0.3614548   0.5544701   0.5722202  )
        24           S   tau(  24) = (   0.4438138   0.3056417   0.3340585  )
        25           S   tau(  25) = (   0.3961557   0.4415079   0.3500390  )
        26           S   tau(  26) = (   0.2534020   0.5042258   0.4444947  )
        27           S   tau(  27) = (   0.5965714   0.4446955   0.5731742  )
        28           S   tau(  28) = (   0.4554423   0.4406059   0.6333404  )
        29           S   tau(  29) = (   0.5273904   0.4347950   0.3844072  )
        30           S   tau(  30) = (   0.5016004   0.4596277   0.2534020  )

     number of k points=     1  Marzari-Vanderbilt smearing, width (Ry)=  0.0200
                       cart. coord. in units 2pi/alat
        k(    1) = (   0.0000000   0.0000000   0.0000000), wk =   2.0000000

     Dense  grid:  3812607 G-vectors     FFT dimensions: ( 288, 225, 240)

     Smooth grid:  1348019 G-vectors     FFT dimensions: ( 192, 160, 180)

     Estimated max dynamical RAM per process >     528.21 MB

     Estimated total dynamical RAM >      20.63 GB

     Initial potential from superposition of free atoms

     starting charge  179.98423, renormalised to  180.00000

     negative rho (up, down):  9.413E-03 0.000E+00
     Starting wfcs are  170 randomized atomic wfcs

     total cpu time spent up to now is       13.0 secs

     Self-consistent Calculation

     iteration #  1     ecut=    45.00 Ry     beta= 0.70
     Davidson diagonalization with overlap
     ethr =  1.00E-02,  avg # of iterations =  2.0

     negative rho (up, down):  1.235E-02 0.000E+00

     total cpu time spent up to now is       23.4 secs

     total energy              =    -701.76285419 Ry
     Harris-Foulkes estimate   =    -704.59848492 Ry
     estimated scf accuracy    <       6.94708652 Ry

     iteration #  2     ecut=    45.00 Ry     beta= 0.70
     Davidson diagonalization with overlap
     ethr =  3.86E-03,  avg # of iterations =  3.0

     negative rho (up, down):  7.894E-03 0.000E+00

     total cpu time spent up to now is       33.7 secs

     total energy              =    -702.93032287 Ry
     Harris-Foulkes estimate   =    -703.75496280 Ry
     estimated scf accuracy    <       3.97321084 Ry

     iteration #  3     ecut=    45.00 Ry     beta= 0.70
     Davidson diagonalization with overlap
     ethr =  2.21E-03,  avg # of iterations =  2.0

     negative rho (up, down):  5.917E-03 0.000E+00

     total cpu time spent up to now is       42.9 secs

     total energy              =    -703.27495099 Ry
     Harris-Foulkes estimate   =    -703.32472743 Ry
     estimated scf accuracy    <       0.27577755 Ry

     iteration #  4     ecut=    45.00 Ry     beta= 0.70
     Davidson diagonalization with overlap
     ethr =  1.53E-04,  avg # of iterations =  3.0

     negative rho (up, down):  4.813E-03 0.000E+00

     total cpu time spent up to now is       54.0 secs

     total energy              =    -703.33369580 Ry
     Harris-Foulkes estimate   =    -703.37291934 Ry
     estimated scf accuracy    <       0.13966822 Ry

     iteration #  5     ecut=    45.00 Ry     beta= 0.70
     Davidson diagonalization with overlap
     ethr =  7.76E-05,  avg # of iterations =  2.0

     negative rho (up, down):  4.512E-03 0.000E+00

     total cpu time spent up to now is       63.4 secs

     total energy              =    -703.34133970 Ry
     Harris-Foulkes estimate   =    -703.35185658 Ry
     estimated scf accuracy    <       0.05309778 Ry

     iteration #  6     ecut=    45.00 Ry     beta= 0.70
     Davidson diagonalization with overlap
     ethr =  2.95E-05,  avg # of iterations =  2.0

     negative rho (up, down):  4.200E-03 0.000E+00

     total cpu time spent up to now is       72.8 secs

     total energy              =    -703.34421779 Ry
     Harris-Foulkes estimate   =    -703.34814139 Ry
     estimated scf accuracy    <       0.02392057 Ry

     iteration #  7     ecut=    45.00 Ry     beta= 0.70
     Davidson diagonalization with overlap
     ethr =  1.33E-05,  avg # of iterations =  1.0

     negative rho (up, down):  4.271E-03 0.000E+00

     total cpu time spent up to now is       82.0 secs

     total energy              =    -703.33875993 Ry
     Harris-Foulkes estimate   =    -703.34542492 Ry
     estimated scf accuracy    <       0.01585898 Ry

     iteration #  8     ecut=    45.00 Ry     beta= 0.70
     Davidson diagonalization with overlap
     ethr =  8.81E-06,  avg # of iterations =  1.0

     negative rho (up, down):  4.574E-03 0.000E+00

     total cpu time spent up to now is       91.2 secs

     total energy              =    -703.33906909 Ry
     Harris-Foulkes estimate   =    -703.34003400 Ry
     estimated scf accuracy    <       0.00579319 Ry

     iteration #  9     ecut=    45.00 Ry     beta= 0.70
     Davidson diagonalization with overlap
     ethr =  3.22E-06,  avg # of iterations = 10.0

     negative rho (up, down):  7.121E-03 0.000E+00

     total cpu time spent up to now is      101.8 secs

     total energy              =    -703.34025443 Ry
     Harris-Foulkes estimate   =    -703.33944604 Ry
     estimated scf accuracy    <       0.00404537 Ry

     iteration # 10     ecut=    45.00 Ry     beta= 0.70
     Davidson diagonalization with overlap
     ethr =  2.25E-06,  avg # of iterations =  7.0

     negative rho (up, down):  3.183E-02 0.000E+00

     total cpu time spent up to now is      112.3 secs

     total energy              =    -703.34145899 Ry
     Harris-Foulkes estimate   =    -703.34051570 Ry
     estimated scf accuracy    <       0.00375606 Ry

     iteration # 11     ecut=    45.00 Ry     beta= 0.70
     Davidson diagonalization with overlap
     ethr =  2.09E-06,  avg # of iterations =  4.0

     negative rho (up, down):  5.212E-02 0.000E+00

     total cpu time spent up to now is      122.0 secs

     total energy              =    -703.34313262 Ry
     Harris-Foulkes estimate   =    -703.34185350 Ry
     estimated scf accuracy    <       0.00164557 Ry

     iteration # 12     ecut=    45.00 Ry     beta= 0.70
     Davidson diagonalization with overlap
     ethr =  9.14E-07,  avg # of iterations =  1.0

     negative rho (up, down):  5.641E-02 0.000E+00

     total cpu time spent up to now is      131.1 secs

     total energy              =    -703.34444414 Ry
     Harris-Foulkes estimate   =    -703.34320156 Ry
     estimated scf accuracy    <       0.00112436 Ry

     iteration # 13     ecut=    45.00 Ry     beta= 0.70
     Davidson diagonalization with overlap
     ethr =  6.25E-07,  avg # of iterations =  1.0

     negative rho (up, down):  7.815E-02 0.000E+00

     total cpu time spent up to now is      140.3 secs

     total energy              =    -703.34579141 Ry
     Harris-Foulkes estimate   =    -703.34449469 Ry
     estimated scf accuracy    <       0.00075663 Ry

     iteration # 14     ecut=    45.00 Ry     beta= 0.70
     Davidson diagonalization with overlap
     ethr =  4.20E-07,  avg # of iterations =  2.0

     negative rho (up, down):  7.784E-02 0.000E+00

     total cpu time spent up to now is      149.6 secs

     total energy              =    -703.34581695 Ry
     Harris-Foulkes estimate   =    -703.34583246 Ry
     estimated scf accuracy    <       0.00047678 Ry

     iteration # 15     ecut=    45.00 Ry     beta= 0.70
     Davidson diagonalization with overlap
     ethr =  2.65E-07,  avg # of iterations =  1.0

     negative rho (up, down):  5.991E-02 0.000E+00

     total cpu time spent up to now is      158.8 secs

     total energy              =    -703.34545381 Ry
     Harris-Foulkes estimate   =    -703.34583649 Ry
     estimated scf accuracy    <       0.00034559 Ry

     iteration # 16     ecut=    45.00 Ry     beta= 0.70
     Davidson diagonalization with overlap
     ethr =  1.92E-07,  avg # of iterations =  2.0

     negative rho (up, down):  5.423E-02 0.000E+00

     total cpu time spent up to now is      168.2 secs

     total energy              =    -703.34549801 Ry
     Harris-Foulkes estimate   =    -703.34547608 Ry
     estimated scf accuracy    <       0.00024928 Ry

     iteration # 17     ecut=    45.00 Ry     beta= 0.70
     Davidson diagonalization with overlap
     ethr =  1.38E-07,  avg # of iterations =  1.0

     negative rho (up, down):  5.242E-02 0.000E+00

     total cpu time spent up to now is      177.3 secs

     total energy              =    -703.34555219 Ry
     Harris-Foulkes estimate   =    -703.34550945 Ry
     estimated scf accuracy    <       0.00016870 Ry

     iteration # 18     ecut=    45.00 Ry     beta= 0.70
     Davidson diagonalization with overlap
     ethr =  9.37E-08,  avg # of iterations =  1.0

     negative rho (up, down):  4.005E-02 0.000E+00

     total cpu time spent up to now is      186.5 secs

     total energy              =    -703.34552206 Ry
     Harris-Foulkes estimate   =    -703.34555988 Ry
     estimated scf accuracy    <       0.00012158 Ry

     iteration # 19     ecut=    45.00 Ry     beta= 0.70
     Davidson diagonalization with overlap
     ethr =  6.75E-08,  avg # of iterations =  2.0

     negative rho (up, down):  3.278E-02 0.000E+00

     total cpu time spent up to now is      195.9 secs

     total energy              =    -703.34549450 Ry
     Harris-Foulkes estimate   =    -703.34552817 Ry
     estimated scf accuracy    <       0.00007282 Ry

     iteration # 20     ecut=    45.00 Ry     beta= 0.70
     Davidson diagonalization with overlap
     ethr =  4.05E-08,  avg # of iterations =  1.0

     negative rho (up, down):  2.933E-02 0.000E+00

     total cpu time spent up to now is      205.1 secs

     total energy              =    -703.34551450 Ry
     Harris-Foulkes estimate   =    -703.34549866 Ry
     estimated scf accuracy    <       0.00005560 Ry

     iteration # 21     ecut=    45.00 Ry     beta= 0.70
     Davidson diagonalization with overlap
     ethr =  3.09E-08,  avg # of iterations =  1.0

     negative rho (up, down):  2.396E-02 0.000E+00

     total cpu time spent up to now is      214.3 secs

     total energy              =    -703.34553729 Ry
     Harris-Foulkes estimate   =    -703.34551742 Ry
     estimated scf accuracy    <       0.00003017 Ry

     iteration # 22     ecut=    45.00 Ry     beta= 0.70
     Davidson diagonalization with overlap
     ethr =  1.68E-08,  avg # of iterations =  1.0

     negative rho (up, down):  2.178E-02 0.000E+00

     total cpu time spent up to now is      223.4 secs

     total energy              =    -703.34556890 Ry
     Harris-Foulkes estimate   =    -703.34553835 Ry
     estimated scf accuracy    <       0.00002007 Ry

     iteration # 23     ecut=    45.00 Ry     beta= 0.70
     Davidson diagonalization with overlap
     ethr =  1.12E-08,  avg # of iterations =  1.0

     negative rho (up, down):  1.980E-02 0.000E+00

     total cpu time spent up to now is      232.6 secs

     total energy              =    -703.34558680 Ry
     Harris-Foulkes estimate   =    -703.34556966 Ry
     estimated scf accuracy    <       0.00001378 Ry

     iteration # 24     ecut=    45.00 Ry     beta= 0.70
     Davidson diagonalization with overlap
     ethr =  7.65E-09,  avg # of iterations =  2.0

     negative rho (up, down):  1.906E-02 0.000E+00

     total cpu time spent up to now is      241.9 secs

     total energy              =    -703.34559502 Ry
     Harris-Foulkes estimate   =    -703.34558752 Ry
     estimated scf accuracy    <       0.00000955 Ry

     iteration # 25     ecut=    45.00 Ry     beta= 0.70
     Davidson diagonalization with overlap
     ethr =  5.31E-09,  avg # of iterations =  1.0

     negative rho (up, down):  1.852E-02 0.000E+00

     total cpu time spent up to now is      251.0 secs

     total energy              =    -703.34559257 Ry
     Harris-Foulkes estimate   =    -703.34559531 Ry
     estimated scf accuracy    <       0.00000706 Ry

     iteration # 26     ecut=    45.00 Ry     beta= 0.70
     Davidson diagonalization with overlap
     ethr =  3.92E-09,  avg # of iterations =  1.0

     negative rho (up, down):  1.759E-02 0.000E+00

     total cpu time spent up to now is      260.2 secs

     total energy              =    -703.34558836 Ry
     Harris-Foulkes estimate   =    -703.34559288 Ry
     estimated scf accuracy    <       0.00000501 Ry

     iteration # 27     ecut=    45.00 Ry     beta= 0.70
     Davidson diagonalization with overlap
     ethr =  2.79E-09,  avg # of iterations =  1.0

     negative rho (up, down):  1.562E-02 0.000E+00

     total cpu time spent up to now is      269.4 secs

     total energy              =    -703.34557186 Ry
     Harris-Foulkes estimate   =    -703.34558852 Ry
     estimated scf accuracy    <       0.00000375 Ry

     iteration # 28     ecut=    45.00 Ry     beta= 0.70
     Davidson diagonalization with overlap
     ethr =  2.08E-09,  avg # of iterations =  1.0

     negative rho (up, down):  1.428E-02 0.000E+00

     total cpu time spent up to now is      278.6 secs

     total energy              =    -703.34556116 Ry
     Harris-Foulkes estimate   =    -703.34557204 Ry
     estimated scf accuracy    <       0.00000203 Ry

     iteration # 29     ecut=    45.00 Ry     beta= 0.70
     Davidson diagonalization with overlap
     ethr =  1.13E-09,  avg # of iterations =  2.0

     negative rho (up, down):  1.353E-02 0.000E+00

     total cpu time spent up to now is      288.1 secs

     total energy              =    -703.34555658 Ry
     Harris-Foulkes estimate   =    -703.34556136 Ry
     estimated scf accuracy    <       0.00000131 Ry

     iteration # 30     ecut=    45.00 Ry     beta= 0.70
     Davidson diagonalization with overlap
     ethr =  7.26E-10,  avg # of iterations =  1.0

     negative rho (up, down):  1.282E-02 0.000E+00

     total cpu time spent up to now is      296.6 secs

     End of self-consistent calculation

          k = 0.0000 0.0000 0.0000 (168503 PWs)   bands (ev):

   -19.9697 -18.8441 -18.5011 -17.8844 -17.6698 -17.5168 -17.3962 -17.3372
   -17.3141 -17.2652 -17.1764 -17.0771 -17.0632 -17.0260 -16.9656 -16.8622
   -16.8121 -16.4573 -16.4456 -16.0025 -11.6641 -11.3550 -11.2452 -10.4919
   -10.3933 -10.1018  -9.9256  -9.5828  -9.3875  -9.3091  -9.1930  -9.0846
    -9.0708  -8.9740  -8.9444  -8.8705  -8.8530  -8.7742  -8.7150  -8.6440
    -8.5692  -8.5281  -8.5091  -8.4905  -8.4615  -8.3652  -8.3291  -8.3086
    -8.2255  -8.1987  -8.1637  -8.1252  -8.1046  -8.0031  -7.9312  -7.8823
    -7.8640  -7.8250  -7.7413  -7.6851  -7.5838  -7.5275  -7.4302  -7.3822
    -7.2698  -7.1735  -7.1438  -7.0234  -6.9637  -6.9304  -6.8111  -6.7380
    -6.6723  -6.5176  -6.4475  -6.3467  -6.2827  -6.2589  -6.2143  -6.1499
    -5.8847  -5.8509  -5.8243  -5.5418  -5.4280  -5.3462  -5.2861  -5.1378
    -5.0348  -4.8653  -4.6356  -4.4629  -4.3575  -4.1001  -4.0199  -3.9998
    -3.8737  -3.8237  -3.7199  -3.6823  -3.5965  -3.5296  -3.4861  -3.3618
    -3.2742  -3.2109  -3.1819  -3.0386

     the Fermi energy is    -4.7738 ev

!    total energy              =    -703.34555730 Ry
     Harris-Foulkes estimate   =    -703.34555662 Ry
     estimated scf accuracy    <       0.00000098 Ry

     The total energy is the sum of the following terms:

     one-electron contribution =   -3822.28511465 Ry
     hartree contribution      =    1938.19259241 Ry
     xc contribution           =    -277.13026646 Ry
     ewald contribution        =    1457.86770019 Ry
     smearing contrib. (-TS)   =       0.00953121 Ry

     convergence has been achieved in  30 iterations

     negative rho (up, down):  1.282E-02 0.000E+00

     Forces acting on atoms (cartesian axes, Ry/au):

     atom    1 type  1   force =     0.00616052    0.01816754    0.00652152
     atom    2 type  1   force =    -0.01903103   -0.00545542    0.00882428
     atom    3 type  1   force =    -0.01264144    0.00632201   -0.02141853
     atom    4 type  1   force =    -0.00597981   -0.00061995    0.00035475
     atom    5 type  1   force =    -0.01623452   -0.00788270   -0.00227989
     atom    6 type  1   force =    -0.00185117    0.00379567   -0.01411148
     atom    7 type  1   force =     0.00993646   -0.01243034    0.02320118
     atom    8 type  1   force =    -0.01075953    0.01323387   -0.00233386
     atom    9 type  1   force =     0.01615163   -0.00102899    0.00653323
     atom   10 type  1   force =    -0.00971450   -0.00800294   -0.00247407
     atom   11 type  2   force =     0.01724636   -0.00658391   -0.00816209
     atom   12 type  2   force =     0.01505988   -0.01721491    0.00613967
     atom   13 type  2   force =    -0.00705402   -0.01773711    0.01269704
     atom   14 type  2   force =     0.00956624    0.00068248   -0.01917494
     atom   15 type  2   force =    -0.01263837   -0.02294536    0.00589823
     atom   16 type  2   force =    -0.00921863   -0.00586418    0.00299741
     atom   17 type  2   force =     0.01217741    0.02920521   -0.00549003
     atom   18 type  2   force =    -0.00540263    0.01368828    0.00011566
     atom   19 type  2   force =     0.00335348   -0.01475567   -0.00918094
     atom   20 type  2   force =    -0.00215981   -0.00689798   -0.01623014
     atom   21 type  2   force =    -0.00282843   -0.00848400   -0.00642883
     atom   22 type  2   force =     0.01372345    0.00640129   -0.00303134
     atom   23 type  2   force =     0.00168328    0.00266300    0.00068991
     atom   24 type  2   force =     0.00092327    0.01767542   -0.00462893
     atom   25 type  2   force =     0.00000150    0.00518521    0.01492308
     atom   26 type  2   force =    -0.00246079    0.00816657    0.01309115
     atom   27 type  2   force =     0.00955811   -0.00722157   -0.00065472
     atom   28 type  2   force =    -0.00778568    0.00075328    0.01955854
     atom   29 type  2   force =    -0.00066816    0.03198742   -0.00055065
     atom   30 type  2   force =     0.01088693   -0.01480223   -0.00539522

     Total force =     0.107409     Total SCF correction =     0.001177
 
     init_run     :     11.95s CPU     12.42s WALL (       1 calls)
     electrons    :    263.90s CPU    283.51s WALL (       1 calls)
     forces       :      4.65s CPU      4.97s WALL (       1 calls)

     Called by init_run:
     wfcinit      :      4.53s CPU      4.63s WALL (       1 calls)
     potinit      :      1.63s CPU      1.69s WALL (       1 calls)
     hinit0       :      1.61s CPU      1.65s WALL (       1 calls)

     Called by electrons:
     c_bands      :     99.57s CPU    102.93s WALL (      30 calls)
     sum_band     :     86.55s CPU     95.11s WALL (      30 calls)
     v_of_rho     :     15.60s CPU     16.13s WALL (      31 calls)
     newd         :     41.47s CPU     47.96s WALL (      31 calls)
     mix_rho      :     19.60s CPU     20.37s WALL (      30 calls)

     Called by c_bands:
     init_us_2    :      1.48s CPU      1.54s WALL (      61 calls)
     regterg      :     92.69s CPU     96.00s WALL (      30 calls)

     Called by sum_band:
     sum_band:bec :      0.01s CPU      0.01s WALL (      30 calls)
     addusdens    :     61.14s CPU     68.94s WALL (      30 calls)

     Called by *egterg:
     h_psi        :     80.18s CPU     82.55s WALL (      92 calls)
     s_psi        :      4.14s CPU      4.15s WALL (      92 calls)
     g_psi        :      0.16s CPU      0.16s WALL (      61 calls)
     rdiaghg      :      1.63s CPU      1.66s WALL (      91 calls)

     Called by h_psi:
     h_psi:pot    :     79.72s CPU     82.09s WALL (      92 calls)
     h_psi:calbec :      4.17s CPU      4.21s WALL (      92 calls)
     vloc_psi     :     71.31s CPU     73.60s WALL (      92 calls)
     add_vuspsi   :      4.24s CPU      4.28s WALL (      92 calls)

     General routines
     calbec       :      6.13s CPU      6.21s WALL (     126 calls)
     fft          :     19.17s CPU     20.02s WALL (     348 calls)
     ffts         :     12.03s CPU     12.68s WALL (     648 calls)
     fftw         :     67.70s CPU     70.34s WALL (    8674 calls)
     interpolate  :      2.38s CPU      2.48s WALL (      31 calls)
 
     Parallel routines
     fft_scatt_xy :     19.70s CPU     19.88s WALL (    9670 calls)
     fft_scatt_yz :     33.04s CPU     36.64s WALL (    9670 calls)
 
     PWSCF        :   4m41.09s CPU   5m 1.61s WALL

 
   This run was terminated on:  18:53:35  19Oct2021            

=------------------------------------------------------------------------------=
   JOB DONE.
=------------------------------------------------------------------------------=
