
     Program PWSCF v.6.4 starts on 24Dec2021 at  1: 6:17 

     This program is part of the open-source Quantum ESPRESSO suite
     for quantum simulation of materials; please cite
         "P. Giannozzi et al., J. Phys.:Condens. Matter 21 395502 (2009);
         "P. Giannozzi et al., J. Phys.:Condens. Matter 29 465901 (2017);
          URL http://www.quantum-espresso.org", 
     in publications or presentations arising from this work. More details at
     http://www.quantum-espresso.org/quote

     Parallel version (MPI), running on    40 processors

     MPI processes distributed on     1 nodes
     R & G space division:  proc/nbgrp/npool/nimage =      40
     Waiting for input...
     Reading input from standard input
Warning: card    &IONS ignored
Warning: card      ION_DYNAMICS = 'BFGS' ignored
Warning: card   / ignored
Warning: card    &CELL ignored
Warning: card      CELL_DYNAMICS = 'BFGS', ignored
Warning: card    / ignored

     Current dimensions of program PWSCF are:
     Max number of different atomic species (ntypx) = 10
     Max number of k-points (npk) =  40000
     Max angular momentum in pseudopotentials (lmaxx) =  3

     Subspace diagonalization in iterative solution of the eigenvalue problem:
     one sub-group per band group will be used
     scalapack distributed-memory algorithm (size of sub-group:  4*  4 procs)

 
     Parallelization info
     --------------------
     sticks:   dense  smooth     PW     G-vecs:    dense   smooth      PW
     Min         108      54     14                10807     3821     540
     Max         109      55     15                10817     3829     554
     Sum        4349    2175    595               432525   152955   21905
 


     bravais-lattice index     =            0
     lattice parameter (alat)  =      10.5287  a.u.
     unit-cell volume          =    3749.8423 (a.u.)^3
     number of atoms/cell      =           24
     number of atomic types    =            2
     number of electrons       =       144.00
     number of Kohn-Sham states=           86
     kinetic-energy cutoff     =      45.0000  Ry
     charge density cutoff     =     360.0000  Ry
     convergence threshold     =      1.0E-06
     mixing beta               =       0.7000
     number of iterations used =            8  local-TF  mixing
     Exchange-correlation      = SLA PW GGX GGC ( 1  4  2  2 0 0)

     celldm(1)=  10.528747  celldm(2)=   0.000000  celldm(3)=   0.000000
     celldm(4)=   0.000000  celldm(5)=   0.000000  celldm(6)=   0.000000

     crystal axes: (cart. coord. in units of alat)
               a(1) = (   1.000000   0.000000   0.000000 )  
               a(2) = (  -0.120582   1.371636   0.000000 )  
               a(3) = (   0.050364   0.030502   2.342309 )  

     reciprocal axes: (cart. coord. in units 2 pi/alat)
               b(1) = (  1.000000  0.087911 -0.022647 )  
               b(2) = (  0.000000  0.729057 -0.009494 )  
               b(3) = (  0.000000  0.000000  0.426929 )  


     PseudoPot. # 1 for Mo read from file:
     ~/pseudo/Mo.pw91-n-van.UPF
     MD5 check sum: Not computed, couldn't open file
     Pseudo is Ultrasoft + core correction, Zval =  6.0
     Generated by new atomic code, or converted to UPF format
     Using radial grid of  965 points,  3 beta functions with: 
                l(1) =   1
                l(2) =   2
                l(3) =   2
     Q(r) pseudized with  8 coefficients,  rinner =    1.000   1.000   1.000
                                                       1.200   1.200

     PseudoPot. # 2 for S  read from file:
     ~/pseudo/S.pw91-van_ak.UPF
     MD5 check sum: Not computed, couldn't open file
     Pseudo is Ultrasoft, Zval =  6.0
     Generated by new atomic code, or converted to UPF format
     Using radial grid of  811 points,  6 beta functions with: 
                l(1) =   0
                l(2) =   0
                l(3) =   1
                l(4) =   1
                l(5) =   2
                l(6) =   2
     Q(r) pseudized with  8 coefficients,  rinner =    1.100   1.100   1.100
                                                       1.100   1.100

     atomic species   valence    mass     pseudopotential
        Mo             6.00    95.50000     Mo( 1.00)
        S              6.00    32.06500     S ( 1.00)

     No symmetry found



   Cartesian axes

     site n.     atom                  positions (alat units)
         1           Mo  tau(   1) = (   0.5466129   0.1694021   1.9615654  )
         2           Mo  tau(   2) = (   1.0212232   0.1841770   1.6889801  )
         3           Mo  tau(   3) = (   0.8579387   1.3262345   0.5723010  )
         4           Mo  tau(   4) = (   0.0977627   0.0855495   2.1807538  )
         5           Mo  tau(   5) = (   0.9898288   0.0883087   1.1415566  )
         6           Mo  tau(   6) = (   0.3998821   1.3595845   0.0890563  )
         7           Mo  tau(   7) = (   0.4985845   0.1459959   1.4265413  )
         8           Mo  tau(   8) = (   0.4823414   0.0166763   0.8572342  )
         9           S   tau(   9) = (   0.6963400   1.1265844   0.9243616  )
        10           S   tau(  10) = (   0.8382708   0.4276558   1.3713824  )
        11           S   tau(  11) = (   0.3412364   0.1684213   0.4786677  )
        12           S   tau(  12) = (   0.3352019   0.3598292   1.0805824  )
        13           S   tau(  13) = (   0.6364727   1.1730501   2.0856014  )
        14           S   tau(  14) = (   0.8789931   0.4545322   2.0024157  )
        15           S   tau(  15) = (   0.8239443   0.2842548   0.7928397  )
        16           S   tau(  16) = (   0.6954940   1.2231520   1.4906256  )
        17           S   tau(  17) = (   0.3624914   0.4703102   1.6854314  )
        18           S   tau(  18) = (   0.6131668   1.0569639   0.3418259  )
        19           S   tau(  19) = (   0.1674793   1.0419077   0.6726373  )
        20           S   tau(  20) = (   0.1993790   1.1772423   1.2150032  )
        21           S   tau(  21) = (   0.0833520   1.0596407   0.0280003  )
        22           S   tau(  22) = (   0.4027429   0.3958904   2.3002144  )
        23           S   tau(  23) = (   0.8726828   0.2227720   0.2212016  )
        24           S   tau(  24) = (   0.1749075   1.2279645   1.7826607  )

     number of k points=     8  Marzari-Vanderbilt smearing, width (Ry)=  0.0200
                       cart. coord. in units 2pi/alat
        k(    1) = (   0.0000000   0.0000000   0.0000000), wk =   0.1666667
        k(    2) = (   0.0000000   0.0000000  -0.2134646), wk =   0.1666667
        k(    3) = (   0.0000000  -0.3645283   0.0047470), wk =   0.1666667
        k(    4) = (   0.0000000  -0.3645283  -0.2087176), wk =   0.1666667
        k(    5) = (   0.3333333   0.0293036  -0.0075489), wk =   0.3333333
        k(    6) = (   0.3333333   0.0293036  -0.2210134), wk =   0.3333333
        k(    7) = (   0.3333333  -0.3352247  -0.0028019), wk =   0.3333333
        k(    8) = (   0.3333333  -0.3352247  -0.2162665), wk =   0.3333333

     Dense  grid:   432525 G-vectors     FFT dimensions: (  64,  90, 150)

     Smooth grid:   152955 G-vectors     FFT dimensions: (  45,  64, 108)

     Estimated max dynamical RAM per process >      62.37 MB

     Estimated total dynamical RAM >       2.44 GB

     Initial potential from superposition of free atoms

     starting charge  143.98738, renormalised to  144.00000
     Starting wfcs are  136 randomized atomic wfcs

     total cpu time spent up to now is        3.2 secs

     Self-consistent Calculation

     iteration #  1     ecut=    45.00 Ry     beta= 0.70
     Davidson diagonalization with overlap
     ethr =  1.00E-02,  avg # of iterations =  2.0

     total cpu time spent up to now is        7.1 secs

     total energy              =    -562.09510113 Ry
     Harris-Foulkes estimate   =    -564.16116629 Ry
     estimated scf accuracy    <       5.51941574 Ry

     iteration #  2     ecut=    45.00 Ry     beta= 0.70
     Davidson diagonalization with overlap
     ethr =  3.83E-03,  avg # of iterations =  2.0

     total cpu time spent up to now is       10.7 secs

     total energy              =    -562.99762980 Ry
     Harris-Foulkes estimate   =    -563.39451960 Ry
     estimated scf accuracy    <       2.05597248 Ry

     iteration #  3     ecut=    45.00 Ry     beta= 0.70
     Davidson diagonalization with overlap
     ethr =  1.43E-03,  avg # of iterations =  1.0

     total cpu time spent up to now is       13.5 secs

     total energy              =    -563.16237259 Ry
     Harris-Foulkes estimate   =    -563.19735911 Ry
     estimated scf accuracy    <       0.25099091 Ry

     iteration #  4     ecut=    45.00 Ry     beta= 0.70
     Davidson diagonalization with overlap
     ethr =  1.74E-04,  avg # of iterations =  3.0

     total cpu time spent up to now is       17.3 secs

     total energy              =    -563.18818135 Ry
     Harris-Foulkes estimate   =    -563.20610073 Ry
     estimated scf accuracy    <       0.04514907 Ry

     iteration #  5     ecut=    45.00 Ry     beta= 0.70
     Davidson diagonalization with overlap
     ethr =  3.14E-05,  avg # of iterations =  9.9

     total cpu time spent up to now is       24.2 secs

     total energy              =    -563.19512967 Ry
     Harris-Foulkes estimate   =    -563.19808642 Ry
     estimated scf accuracy    <       0.01920713 Ry

     iteration #  6     ecut=    45.00 Ry     beta= 0.70
     Davidson diagonalization with overlap
     ethr =  1.33E-05,  avg # of iterations =  3.4

     total cpu time spent up to now is       27.7 secs

     total energy              =    -563.19567489 Ry
     Harris-Foulkes estimate   =    -563.19651504 Ry
     estimated scf accuracy    <       0.00485715 Ry

     iteration #  7     ecut=    45.00 Ry     beta= 0.70
     Davidson diagonalization with overlap
     c_bands:  1 eigenvalues not converged
     ethr =  3.37E-06,  avg # of iterations =  8.4

     total cpu time spent up to now is       33.0 secs

     total energy              =    -563.19611679 Ry
     Harris-Foulkes estimate   =    -563.19623377 Ry
     estimated scf accuracy    <       0.00070518 Ry

     iteration #  8     ecut=    45.00 Ry     beta= 0.70
     Davidson diagonalization with overlap
     ethr =  4.90E-07,  avg # of iterations =  3.6

     total cpu time spent up to now is       37.3 secs

     total energy              =    -563.19620636 Ry
     Harris-Foulkes estimate   =    -563.19627170 Ry
     estimated scf accuracy    <       0.00032383 Ry

     iteration #  9     ecut=    45.00 Ry     beta= 0.70
     Davidson diagonalization with overlap
     ethr =  2.25E-07,  avg # of iterations =  1.8

     total cpu time spent up to now is       40.3 secs

     total energy              =    -563.19623100 Ry
     Harris-Foulkes estimate   =    -563.19623897 Ry
     estimated scf accuracy    <       0.00005371 Ry

     iteration # 10     ecut=    45.00 Ry     beta= 0.70
     Davidson diagonalization with overlap
     ethr =  3.73E-08,  avg # of iterations =  3.6

     total cpu time spent up to now is       44.2 secs

     total energy              =    -563.19623857 Ry
     Harris-Foulkes estimate   =    -563.19623973 Ry
     estimated scf accuracy    <       0.00001097 Ry

     iteration # 11     ecut=    45.00 Ry     beta= 0.70
     Davidson diagonalization with overlap
     ethr =  7.62E-09,  avg # of iterations =  2.6

     total cpu time spent up to now is       47.7 secs

     total energy              =    -563.19623996 Ry
     Harris-Foulkes estimate   =    -563.19624024 Ry
     estimated scf accuracy    <       0.00000228 Ry

     iteration # 12     ecut=    45.00 Ry     beta= 0.70
     Davidson diagonalization with overlap
     ethr =  1.58E-09,  avg # of iterations =  3.4

     total cpu time spent up to now is       51.5 secs

     End of self-consistent calculation

          k = 0.0000 0.0000 0.0000 ( 19135 PWs)   bands (ev):

    -8.8968  -8.3359  -8.1934  -7.7789  -7.5529  -7.3978  -7.3384  -7.2487
    -7.1962  -7.0997  -6.9803  -6.9405  -6.8248  -6.7841  -6.4312  -6.3240
    -0.5827  -0.4598  -0.0665  -0.0074   0.0511   0.1501   0.2134   0.2482
     0.3117   0.4431   0.5651   0.6011   0.7641   1.0145   1.0715   1.1971
     1.3569   1.4346   1.5038   1.5195   1.6317   1.6984   1.8102   1.8512
     1.9529   2.0157   2.0525   2.1504   2.1665   2.2215   2.3663   2.4982
     2.5277   2.6196   2.8164   2.8350   2.9150   3.0040   3.0744   3.2106
     3.3533   3.4193   3.6547   3.7554   3.9097   4.0172   4.0852   4.2990
     4.3713   4.4334   4.5021   4.6095   4.7564   4.9595   5.0519   5.2329
     5.3820   5.5763   5.8241   6.0995   6.3198   6.3990   6.7041   6.8599
     6.9640   7.1247   7.2002   7.3624   7.4324   7.4468

          k = 0.0000 0.0000-0.2135 ( 19108 PWs)   bands (ev):

    -8.8479  -8.5575  -7.8442  -7.7655  -7.6746  -7.5590  -7.2824  -7.2614
    -7.1819  -7.0699  -6.9879  -6.9456  -6.8138  -6.7840  -6.4214  -6.3266
    -0.4559  -0.3898  -0.2867  -0.1527  -0.0511  -0.0312   0.2431   0.3897
     0.4200   0.6664   0.7143   0.7392   0.9388   0.9943   1.0630   1.1168
     1.2306   1.2704   1.3713   1.4405   1.6257   1.6744   1.7257   1.7775
     1.8946   1.9805   2.0864   2.1406   2.2149   2.2761   2.4122   2.4918
     2.5370   2.6979   2.7364   2.9387   3.0095   3.0679   3.1811   3.2534
     3.3611   3.4771   3.5519   3.7451   3.7817   3.9751   4.0547   4.2809
     4.3814   4.4442   4.5804   4.6453   4.7827   4.9006   5.0393   5.2114
     5.4479   5.5156   5.8514   6.2017   6.2705   6.3985   6.7018   6.7538
     7.0033   7.0662   7.1896   7.3364   7.4404   7.4558

          k = 0.0000-0.3645 0.0047 ( 19096 PWs)   bands (ev):

    -8.8803  -8.3178  -8.1769  -7.8120  -7.5782  -7.4002  -7.3550  -7.2404
    -7.1964  -7.1019  -6.9827  -6.9474  -6.8209  -6.7835  -6.4327  -6.3239
    -0.5791  -0.3119  -0.0621  -0.0091   0.0967   0.1692   0.2616   0.2712
     0.3059   0.4692   0.5846   0.6631   0.7998   1.0126   1.0523   1.1649
     1.3610   1.4335   1.4738   1.4947   1.6105   1.6792   1.8064   1.8447
     1.9681   1.9841   2.0511   2.1183   2.1563   2.2123   2.3401   2.4126
     2.5056   2.6025   2.7757   2.8013   2.8645   2.9741   3.0379   3.1578
     3.3210   3.3912   3.6518   3.7547   3.8129   3.9750   4.0509   4.3039
     4.3112   4.4532   4.5708   4.6540   4.8051   4.9203   5.0744   5.2478
     5.4654   5.6127   5.8517   6.1019   6.2943   6.4152   6.6978   6.9218
     6.9832   7.1388   7.2504   7.3750   7.4262   7.4811

          k = 0.0000-0.3645-0.2087 ( 19102 PWs)   bands (ev):

    -8.8325  -8.5374  -7.8473  -7.7785  -7.6686  -7.5872  -7.3013  -7.2560
    -7.1843  -7.0764  -6.9892  -6.9497  -6.8091  -6.7837  -6.4229  -6.3262
    -0.4489  -0.2846  -0.2455  -0.1248  -0.0352   0.0310   0.2563   0.4106
     0.4365   0.6750   0.7414   0.7737   0.9416   0.9910   1.0770   1.1423
     1.2457   1.2610   1.3453   1.4474   1.6014   1.6382   1.6658   1.7866
     1.9145   1.9456   2.0485   2.1089   2.2131   2.2138   2.3620   2.4223
     2.5234   2.6518   2.7362   2.9425   3.0002   3.0262   3.1547   3.1829
     3.3072   3.4625   3.5263   3.7165   3.7551   3.9020   4.0825   4.2369
     4.3535   4.4646   4.5765   4.6959   4.7946   4.9368   5.0843   5.2178
     5.4677   5.5848   5.8751   6.2005   6.2686   6.3944   6.7332   6.7904
     7.0376   7.1117   7.2030   7.3447   7.4420   7.4645

          k = 0.3333 0.0293-0.0075 ( 19126 PWs)   bands (ev):

    -8.5566  -8.0906  -7.9134  -7.7106  -7.6239  -7.5275  -7.4366  -7.3196
    -7.2645  -7.2168  -7.1916  -7.0602  -7.0101  -6.7802  -6.6487  -6.3933
    -0.4721  -0.2940  -0.1497  -0.1100  -0.0229   0.1485   0.2776   0.3760
     0.4304   0.5050   0.6950   0.7359   0.8962   0.9732   1.1125   1.1720
     1.2500   1.3104   1.4327   1.5043   1.5976   1.6505   1.7532   1.8135
     1.9103   2.0054   2.1516   2.2286   2.2745   2.3575   2.4419   2.5695
     2.7052   2.7810   2.8993   3.0531   3.1195   3.1724   3.2719   3.3501
     3.3758   3.4778   3.5102   3.6962   3.7640   3.9529   3.9934   4.1615
     4.2587   4.3041   4.3933   4.5295   4.6795   4.7630   4.9888   5.2630
     5.4914   5.6852   5.9022   6.1563   6.3680   6.4773   6.6908   6.8183
     6.9514   7.0777   7.1136   7.1878   7.2305   7.3939

          k = 0.3333 0.0293-0.2210 ( 19126 PWs)   bands (ev):

    -8.5207  -8.2358  -7.7810  -7.6739  -7.5779  -7.5521  -7.4303  -7.4148
    -7.2775  -7.2356  -7.1678  -7.0428  -7.0154  -6.7829  -6.6431  -6.3935
    -0.3757  -0.3470  -0.1374  -0.0915  -0.0135   0.0632   0.2492   0.3361
     0.4391   0.4937   0.7202   0.8039   0.8838   1.0310   1.0945   1.1261
     1.2542   1.3268   1.3936   1.4767   1.5462   1.6227   1.7569   1.8913
     1.9461   2.0482   2.1058   2.2004   2.2910   2.3569   2.4566   2.5833
     2.6925   2.8064   2.8908   3.0065   3.1148   3.1599   3.2772   3.3326
     3.3739   3.5105   3.5717   3.7203   3.7690   3.9635   4.0696   4.1102
     4.2353   4.3298   4.4166   4.5303   4.6170   4.7685   4.9265   5.2297
     5.5171   5.7089   5.8925   6.1655   6.3677   6.5072   6.6738   6.8424
     6.9184   7.0009   7.1144   7.1816   7.2724   7.3482

          k = 0.3333-0.3352-0.0028 ( 19099 PWs)   bands (ev):

    -8.5422  -8.0769  -7.8998  -7.7042  -7.6441  -7.5319  -7.4513  -7.3189
    -7.2702  -7.2245  -7.2003  -7.0620  -7.0036  -6.7823  -6.6519  -6.4026
    -0.4575  -0.2905  -0.1350  -0.0814   0.0339   0.1825   0.2951   0.3760
     0.4448   0.5485   0.7114   0.7565   0.8870   0.9584   1.1128   1.1703
     1.2428   1.3352   1.4452   1.4943   1.6005   1.6590   1.7339   1.7917
     1.9087   2.0032   2.1450   2.1854   2.2585   2.3488   2.4414   2.5739
     2.6870   2.7383   2.8734   3.0048   3.1050   3.1225   3.2322   3.3067
     3.3826   3.4469   3.4902   3.6714   3.7270   3.9145   4.0082   4.1672
     4.2833   4.3445   4.4026   4.4938   4.6809   4.7366   4.9997   5.3101
     5.4889   5.7043   5.9381   6.1540   6.4127   6.4759   6.7350   6.8933
     7.0188   7.0936   7.1407   7.2151   7.2832   7.4062

          k = 0.3333-0.3352-0.2163 ( 19089 PWs)   bands (ev):

    -8.5073  -8.2188  -7.7746  -7.6844  -7.5712  -7.5601  -7.4442  -7.4138
    -7.2844  -7.2426  -7.1770  -7.0483  -7.0067  -6.7851  -6.6467  -6.4026
    -0.3672  -0.3349  -0.1379  -0.0517  -0.0008   0.1263   0.2849   0.3336
     0.4842   0.5275   0.7256   0.8133   0.8798   1.0267   1.1142   1.1403
     1.2141   1.3248   1.4236   1.4701   1.5644   1.6068   1.7418   1.8839
     1.9089   2.0245   2.1016   2.1893   2.2605   2.3679   2.4401   2.5782
     2.6640   2.7906   2.8612   2.9797   3.0702   3.1226   3.2423   3.2893
     3.3489   3.5038   3.5742   3.6712   3.7526   3.9536   4.0494   4.1175
     4.2659   4.3402   4.4196   4.5060   4.6337   4.7431   4.9353   5.2759
     5.5179   5.7389   5.9354   6.1821   6.3858   6.5057   6.7377   6.8730
     6.9418   7.0384   7.1804   7.2229   7.2961   7.3739

     the Fermi energy is     5.3592 ev

!    total energy              =    -563.19623993 Ry
     Harris-Foulkes estimate   =    -563.19624038 Ry
     estimated scf accuracy    <       0.00000058 Ry

     The total energy is the sum of the following terms:

     one-electron contribution =    -159.40872204 Ry
     hartree contribution      =     155.05158207 Ry
     xc contribution           =    -222.12434573 Ry
     ewald contribution        =    -336.71622899 Ry
     smearing contrib. (-TS)   =       0.00147475 Ry

     convergence has been achieved in  12 iterations

     Forces acting on atoms (cartesian axes, Ry/au):

     atom    1 type  1   force =     0.01996685    0.03074290    0.01662842
     atom    2 type  1   force =     0.00031948    0.01145444    0.03210867
     atom    3 type  1   force =     0.01225464   -0.03335343    0.00027461
     atom    4 type  1   force =    -0.00329041   -0.01240324    0.00702178
     atom    5 type  1   force =     0.01503965   -0.02530764    0.02608191
     atom    6 type  1   force =     0.01118918   -0.02536507   -0.03314181
     atom    7 type  1   force =     0.01769852   -0.03120291    0.01594624
     atom    8 type  1   force =     0.00557225   -0.01809655    0.03345980
     atom    9 type  2   force =    -0.00793698   -0.03001830    0.00268850
     atom   10 type  2   force =    -0.00984832   -0.00671865    0.00009746
     atom   11 type  2   force =    -0.00059397    0.03047171   -0.00171651
     atom   12 type  2   force =    -0.01386619   -0.00085278   -0.00029997
     atom   13 type  2   force =    -0.01733717    0.03830987    0.02734534
     atom   14 type  2   force =     0.00981589   -0.03411382   -0.02131634
     atom   15 type  2   force =    -0.00376557    0.03961204   -0.01167647
     atom   16 type  2   force =     0.01086965    0.03673644   -0.03248448
     atom   17 type  2   force =    -0.01612151   -0.02220696   -0.01426565
     atom   18 type  2   force =    -0.00316548   -0.00174482    0.01499705
     atom   19 type  2   force =    -0.00277771   -0.01168097   -0.01463203
     atom   20 type  2   force =     0.00219449    0.01596109   -0.02454648
     atom   21 type  2   force =    -0.00806902    0.04540922    0.00981541
     atom   22 type  2   force =    -0.01190899   -0.03183047   -0.02430064
     atom   23 type  2   force =    -0.00687419   -0.00679938   -0.00675632
     atom   24 type  2   force =     0.00063494    0.04299728   -0.00132848

     Total force =     0.172562     Total SCF correction =     0.001389
 
     init_run     :      2.44s CPU      2.54s WALL (       1 calls)
     electrons    :     47.42s CPU     48.23s WALL (       1 calls)
     forces       :      1.35s CPU      1.37s WALL (       1 calls)

     Called by init_run:
     wfcinit      :      1.40s CPU      1.45s WALL (       1 calls)
     potinit      :      0.27s CPU      0.28s WALL (       1 calls)
     hinit0       :      0.40s CPU      0.40s WALL (       1 calls)

     Called by electrons:
     c_bands      :     37.58s CPU     38.17s WALL (      12 calls)
     sum_band     :      7.19s CPU      7.36s WALL (      12 calls)
     v_of_rho     :      0.42s CPU      0.44s WALL (      13 calls)
     newd         :      1.90s CPU      1.93s WALL (      13 calls)
     mix_rho      :      0.43s CPU      0.44s WALL (      12 calls)

     Called by c_bands:
     init_us_2    :      1.04s CPU      1.05s WALL (     208 calls)
     cegterg      :     34.68s CPU     35.26s WALL (      96 calls)

     Called by sum_band:
     sum_band:bec :      0.10s CPU      0.10s WALL (      96 calls)
     addusdens    :      3.03s CPU      3.09s WALL (      12 calls)

     Called by *egterg:
     h_psi        :     16.90s CPU     17.36s WALL (     461 calls)
     s_psi        :      2.88s CPU      2.89s WALL (     461 calls)
     g_psi        :      0.06s CPU      0.06s WALL (     357 calls)
     cdiaghg      :     10.27s CPU     10.38s WALL (     453 calls)

     Called by h_psi:
     h_psi:pot    :     16.76s CPU     17.22s WALL (     461 calls)
     h_psi:calbec :      3.31s CPU      3.44s WALL (     461 calls)
     vloc_psi     :     10.57s CPU     10.89s WALL (     461 calls)
     add_vuspsi   :      2.88s CPU      2.88s WALL (     461 calls)

     General routines
     calbec       :      4.73s CPU      4.92s WALL (     589 calls)
     fft          :      0.41s CPU      0.44s WALL (     178 calls)
     ffts         :      0.19s CPU      0.20s WALL (     316 calls)
     fftw         :     11.90s CPU     12.24s WALL (   50048 calls)
     interpolate  :      0.04s CPU      0.04s WALL (      13 calls)
 
     Parallel routines
     fft_scatt_xy :      1.14s CPU      1.17s WALL (   50542 calls)
     fft_scatt_yz :      6.85s CPU      7.06s WALL (   50542 calls)
 
     PWSCF        :     51.91s CPU     52.90s WALL

 
   This run was terminated on:   1: 7:10  24Dec2021            

=------------------------------------------------------------------------------=
   JOB DONE.
=------------------------------------------------------------------------------=
