
     Program PWSCF v.6.4 starts on 18Oct2021 at 17:17: 2 

     This program is part of the open-source Quantum ESPRESSO suite
     for quantum simulation of materials; please cite
         "P. Giannozzi et al., J. Phys.:Condens. Matter 21 395502 (2009);
         "P. Giannozzi et al., J. Phys.:Condens. Matter 29 465901 (2017);
          URL http://www.quantum-espresso.org", 
     in publications or presentations arising from this work. More details at
     http://www.quantum-espresso.org/quote

     Parallel version (MPI), running on    40 processors

     MPI processes distributed on     1 nodes
     R & G space division:  proc/nbgrp/npool/nimage =      40
     Waiting for input...
     Reading input from standard input
Warning: card    &IONS ignored
Warning: card      ION_DYNAMICS = 'BFGS' ignored
Warning: card   / ignored
Warning: card    &CELL ignored
Warning: card      CELL_DYNAMICS = 'BFGS', ignored
Warning: card    / ignored

     Current dimensions of program PWSCF are:
     Max number of different atomic species (ntypx) = 10
     Max number of k-points (npk) =  40000
     Max angular momentum in pseudopotentials (lmaxx) =  3

     Subspace diagonalization in iterative solution of the eigenvalue problem:
     one sub-group per band group will be used
     scalapack distributed-memory algorithm (size of sub-group:  4*  4 procs)

 
     Parallelization info
     --------------------
     sticks:   dense  smooth     PW     G-vecs:    dense   smooth      PW
     Min          90      45     12                24379     8604    1245
     Max          91      46     13                24400     8632    1272
     Sum        3623    1803    499               975563   344839   50293
 


     bravais-lattice index     =            0
     lattice parameter (alat)  =      12.0704  a.u.
     unit-cell volume          =    8455.9709 (a.u.)^3
     number of atoms/cell      =           36
     number of atomic types    =            2
     number of electrons       =       216.00
     number of Kohn-Sham states=          130
     kinetic-energy cutoff     =      45.0000  Ry
     charge density cutoff     =     360.0000  Ry
     convergence threshold     =      1.0E-06
     mixing beta               =       0.7000
     number of iterations used =            8  local-TF  mixing
     Exchange-correlation      = SLA PW GGX GGC ( 1  4  2  2 0 0)

     celldm(1)=  12.070422  celldm(2)=   0.000000  celldm(3)=   0.000000
     celldm(4)=   0.000000  celldm(5)=   0.000000  celldm(6)=   0.000000

     crystal axes: (cart. coord. in units of alat)
               a(1) = (   0.999437  -0.031822   0.010650 )  
               a(2) = (   0.529281   0.849031   0.012051 )  
               a(3) = (  -0.010695  -0.376599   5.553341 )  

     reciprocal axes: (cart. coord. in units 2 pi/alat)
               b(1) = (  0.981521 -0.611313 -0.039566 )  
               b(2) = (  0.035918  1.154310  0.078348 )  
               b(3) = ( -0.001960 -0.001333  0.179978 )  


     PseudoPot. # 1 for Mo read from file:
     ~/pseudo/Mo.pw91-n-van.UPF
     MD5 check sum: Not computed, couldn't open file
     Pseudo is Ultrasoft + core correction, Zval =  6.0
     Generated by new atomic code, or converted to UPF format
     Using radial grid of  965 points,  3 beta functions with: 
                l(1) =   1
                l(2) =   2
                l(3) =   2
     Q(r) pseudized with  8 coefficients,  rinner =    1.000   1.000   1.000
                                                       1.200   1.200

     PseudoPot. # 2 for S  read from file:
     ~/pseudo/S.pw91-van_ak.UPF
     MD5 check sum: Not computed, couldn't open file
     Pseudo is Ultrasoft, Zval =  6.0
     Generated by new atomic code, or converted to UPF format
     Using radial grid of  811 points,  6 beta functions with: 
                l(1) =   0
                l(2) =   0
                l(3) =   1
                l(4) =   1
                l(5) =   2
                l(6) =   2
     Q(r) pseudized with  8 coefficients,  rinner =    1.100   1.100   1.100
                                                       1.100   1.100

     atomic species   valence    mass     pseudopotential
        Mo             6.00    95.50000     Mo( 1.00)
        S              6.00    32.06500     S ( 1.00)

     No symmetry found



   Cartesian axes

     site n.     atom                  positions (alat units)
         1           Mo  tau(   1) = (   0.2545624  -0.0036348   0.1608088  )
         2           Mo  tau(   2) = (   0.3706506  -0.0658015   5.3479131  )
         3           Mo  tau(   3) = (   1.0499476   0.3476754   0.1610034  )
         4           Mo  tau(   4) = (   1.1521472   0.3502817   5.3984401  )
         5           Mo  tau(   5) = (   0.5468664   0.2892424   1.2970027  )
         6           Mo  tau(   6) = (   0.8068786   0.7163071   1.3015124  )
         7           Mo  tau(   7) = (   1.2950767   0.7131243   1.3090838  )
         8           Mo  tau(   8) = (   1.0252655   0.2814462   1.3022761  )
         9           Mo  tau(   9) = (   0.2703756   0.0985278   4.2949862  )
        10           Mo  tau(  10) = (   0.5911883   0.5528097   4.2932587  )
        11           Mo  tau(  11) = (   1.0341241   0.5077348   4.3065216  )
        12           Mo  tau(  12) = (   0.8253544   0.1127733   4.2937559  )
        13           S   tau(  13) = (   0.7884152   0.4307437   5.3370127  )
        14           S   tau(  14) = (   1.2793471   0.3903006   5.0884083  )
        15           S   tau(  15) = (   1.0108384   0.0004442   5.3362333  )
        16           S   tau(  16) = (   0.5406465   0.0219455   5.0647382  )
        17           S   tau(  17) = (   1.0488187   0.5689072   1.0500207  )
        18           S   tau(  18) = (   0.7833908   0.1442031   1.0408255  )
        19           S   tau(  19) = (   0.2833405   0.1620122   1.0432915  )
        20           S   tau(  20) = (   0.5472994   0.5853514   1.0495004  )
        21           S   tau(  21) = (   0.8075979   0.3856791   4.0307692  )
        22           S   tau(  22) = (   0.5444829  -0.0376595   4.0555725  )
        23           S   tau(  23) = (   1.0418542  -0.0541273   4.0305058  )
        24           S   tau(  24) = (   1.3084669   0.3708553   4.0669121  )
        25           S   tau(  25) = (   0.7026253   0.7728163   0.4979682  )
        26           S   tau(  26) = (   0.8757409   0.0089740   0.1061296  )
        27           S   tau(  27) = (   0.9122860   0.3859095   0.4793671  )
        28           S   tau(  28) = (   0.4157883   0.3279274   0.1815947  )
        29           S   tau(  29) = (   0.7892919   0.4315118   1.5567142  )
        30           S   tau(  30) = (   0.5240384   0.0060470   1.5505586  )
        31           S   tau(  31) = (   1.0253614  -0.0105252   1.5511656  )
        32           S   tau(  32) = (   1.2893087   0.4139754   1.5544709  )
        33           S   tau(  33) = (   0.5509920   0.2487750   4.5315086  )
        34           S   tau(  34) = (   0.2876315  -0.1756894   4.5575036  )
        35           S   tau(  35) = (   0.7864757  -0.1922548   4.5308481  )
        36           S   tau(  36) = (   1.0529380   0.2334497   4.5688187  )

     number of k points=     5  Marzari-Vanderbilt smearing, width (Ry)=  0.0200
                       cart. coord. in units 2pi/alat
        k(    1) = (   0.0000000   0.0000000   0.0000000), wk =   0.2222222
        k(    2) = (   0.0119727   0.3847701   0.0261162), wk =   0.4444444
        k(    3) = (   0.3271737  -0.2037710  -0.0131886), wk =   0.4444444
        k(    4) = (   0.3391464   0.1809991   0.0129276), wk =   0.4444444
        k(    5) = (   0.3152010  -0.5885410  -0.0393047), wk =   0.4444444

     Dense  grid:   975563 G-vectors     FFT dimensions: (  75,  75, 405)

     Smooth grid:   344839 G-vectors     FFT dimensions: (  54,  54, 288)

     Estimated max dynamical RAM per process >     152.33 MB

     Estimated total dynamical RAM >       5.95 GB

     Initial potential from superposition of free atoms

     starting charge  215.98107, renormalised to  216.00000

     negative rho (up, down):  9.221E-04 0.000E+00
     Starting wfcs are  204 randomized atomic wfcs

     total cpu time spent up to now is        5.7 secs

     Self-consistent Calculation

     iteration #  1     ecut=    45.00 Ry     beta= 0.70
     Davidson diagonalization with overlap
     ethr =  1.00E-02,  avg # of iterations =  2.0

     negative rho (up, down):  2.251E-04 0.000E+00

     total cpu time spent up to now is       14.3 secs

     total energy              =    -842.71581931 Ry
     Harris-Foulkes estimate   =    -845.85728905 Ry
     estimated scf accuracy    <      10.47915324 Ry

     iteration #  2     ecut=    45.00 Ry     beta= 0.70
     Davidson diagonalization with overlap
     ethr =  4.85E-03,  avg # of iterations =  2.2

     negative rho (up, down):  5.624E-05 0.000E+00

     total cpu time spent up to now is       23.6 secs

     total energy              =    -844.13446889 Ry
     Harris-Foulkes estimate   =    -844.74837399 Ry
     estimated scf accuracy    <       4.59916101 Ry

     iteration #  3     ecut=    45.00 Ry     beta= 0.70
     Davidson diagonalization with overlap
     ethr =  2.13E-03,  avg # of iterations =  1.4

     negative rho (up, down):  1.215E-05 0.000E+00

     total cpu time spent up to now is       30.3 secs

     total energy              =    -844.39273323 Ry
     Harris-Foulkes estimate   =    -844.44320676 Ry
     estimated scf accuracy    <       0.53845368 Ry

     iteration #  4     ecut=    45.00 Ry     beta= 0.70
     Davidson diagonalization with overlap
     ethr =  2.49E-04,  avg # of iterations =  3.2

     negative rho (up, down):  7.022E-07 0.000E+00

     total cpu time spent up to now is       37.7 secs

     total energy              =    -844.41842549 Ry
     Harris-Foulkes estimate   =    -844.44937638 Ry
     estimated scf accuracy    <       0.11457807 Ry

     iteration #  5     ecut=    45.00 Ry     beta= 0.70
     Davidson diagonalization with overlap
     ethr =  5.30E-05,  avg # of iterations =  5.8

     negative rho (up, down):  1.881E-07 0.000E+00

     total cpu time spent up to now is       46.6 secs

     total energy              =    -844.43052348 Ry
     Harris-Foulkes estimate   =    -844.44128627 Ry
     estimated scf accuracy    <       0.09682007 Ry

     iteration #  6     ecut=    45.00 Ry     beta= 0.70
     Davidson diagonalization with overlap
     ethr =  4.48E-05,  avg # of iterations =  1.2

     negative rho (up, down):  5.691E-08 0.000E+00

     total cpu time spent up to now is       53.0 secs

     total energy              =    -844.43192295 Ry
     Harris-Foulkes estimate   =    -844.43664862 Ry
     estimated scf accuracy    <       0.03244157 Ry

     iteration #  7     ecut=    45.00 Ry     beta= 0.70
     Davidson diagonalization with overlap
     c_bands:  1 eigenvalues not converged
     ethr =  1.50E-05,  avg # of iterations =  5.2

     negative rho (up, down):  1.264E-08 0.000E+00

     total cpu time spent up to now is       60.3 secs

     total energy              =    -844.43381643 Ry
     Harris-Foulkes estimate   =    -844.43439945 Ry
     estimated scf accuracy    <       0.00335828 Ry

     iteration #  8     ecut=    45.00 Ry     beta= 0.70
     Davidson diagonalization with overlap
     ethr =  1.55E-06,  avg # of iterations = 12.2

     total cpu time spent up to now is       72.2 secs

     total energy              =    -844.43394661 Ry
     Harris-Foulkes estimate   =    -844.43430574 Ry
     estimated scf accuracy    <       0.00248845 Ry

     iteration #  9     ecut=    45.00 Ry     beta= 0.70
     Davidson diagonalization with overlap
     ethr =  1.15E-06,  avg # of iterations =  1.0

     total cpu time spent up to now is       78.2 secs

     total energy              =    -844.43398576 Ry
     Harris-Foulkes estimate   =    -844.43405283 Ry
     estimated scf accuracy    <       0.00259960 Ry

     iteration # 10     ecut=    45.00 Ry     beta= 0.70
     Davidson diagonalization with overlap
     ethr =  1.15E-06,  avg # of iterations =  1.0

     negative rho (up, down):  4.628E-08 0.000E+00

     total cpu time spent up to now is       84.1 secs

     total energy              =    -844.43426951 Ry
     Harris-Foulkes estimate   =    -844.43404592 Ry
     estimated scf accuracy    <       0.00121843 Ry

     iteration # 11     ecut=    45.00 Ry     beta= 0.70
     Davidson diagonalization with overlap
     ethr =  5.64E-07,  avg # of iterations =  1.2

     negative rho (up, down):  1.864E-05 0.000E+00

     total cpu time spent up to now is       90.5 secs

     total energy              =    -844.43447998 Ry
     Harris-Foulkes estimate   =    -844.43430212 Ry
     estimated scf accuracy    <       0.00055067 Ry

     iteration # 12     ecut=    45.00 Ry     beta= 0.70
     Davidson diagonalization with overlap
     ethr =  2.55E-07,  avg # of iterations =  1.4

     negative rho (up, down):  3.930E-04 0.000E+00

     total cpu time spent up to now is       97.1 secs

     total energy              =    -844.43459601 Ry
     Harris-Foulkes estimate   =    -844.43450783 Ry
     estimated scf accuracy    <       0.00030321 Ry

     iteration # 13     ecut=    45.00 Ry     beta= 0.70
     Davidson diagonalization with overlap
     ethr =  1.40E-07,  avg # of iterations =  2.8

     negative rho (up, down):  5.117E-04 0.000E+00

     total cpu time spent up to now is      104.3 secs

     total energy              =    -844.43462136 Ry
     Harris-Foulkes estimate   =    -844.43461557 Ry
     estimated scf accuracy    <       0.00004887 Ry

     iteration # 14     ecut=    45.00 Ry     beta= 0.70
     Davidson diagonalization with overlap
     ethr =  2.26E-08,  avg # of iterations =  4.0

     negative rho (up, down):  4.459E-04 0.000E+00

     total cpu time spent up to now is      112.8 secs

     total energy              =    -844.43462707 Ry
     Harris-Foulkes estimate   =    -844.43463115 Ry
     estimated scf accuracy    <       0.00002472 Ry

     iteration # 15     ecut=    45.00 Ry     beta= 0.70
     Davidson diagonalization with overlap
     ethr =  1.14E-08,  avg # of iterations =  1.2

     negative rho (up, down):  4.760E-04 0.000E+00

     total cpu time spent up to now is      119.3 secs

     total energy              =    -844.43462502 Ry
     Harris-Foulkes estimate   =    -844.43462822 Ry
     estimated scf accuracy    <       0.00001047 Ry

     iteration # 16     ecut=    45.00 Ry     beta= 0.70
     Davidson diagonalization with overlap
     ethr =  4.85E-09,  avg # of iterations =  3.2

     negative rho (up, down):  8.964E-04 0.000E+00

     total cpu time spent up to now is      126.7 secs

     total energy              =    -844.43463156 Ry
     Harris-Foulkes estimate   =    -844.43462593 Ry
     estimated scf accuracy    <       0.00000474 Ry

     iteration # 17     ecut=    45.00 Ry     beta= 0.70
     Davidson diagonalization with overlap
     ethr =  2.19E-09,  avg # of iterations =  2.6

     negative rho (up, down):  1.062E-03 0.000E+00

     total cpu time spent up to now is      133.8 secs

     total energy              =    -844.43463513 Ry
     Harris-Foulkes estimate   =    -844.43463194 Ry
     estimated scf accuracy    <       0.00000184 Ry

     iteration # 18     ecut=    45.00 Ry     beta= 0.70
     Davidson diagonalization with overlap
     ethr =  8.52E-10,  avg # of iterations =  2.2

     negative rho (up, down):  1.171E-03 0.000E+00

     total cpu time spent up to now is      140.7 secs

     total energy              =    -844.43463734 Ry
     Harris-Foulkes estimate   =    -844.43463523 Ry
     estimated scf accuracy    <       0.00000107 Ry

     iteration # 19     ecut=    45.00 Ry     beta= 0.70
     Davidson diagonalization with overlap
     ethr =  4.96E-10,  avg # of iterations =  1.8

     negative rho (up, down):  1.271E-03 0.000E+00

     total cpu time spent up to now is      146.8 secs

     End of self-consistent calculation

          k = 0.0000 0.0000 0.0000 ( 43047 PWs)   bands (ev):

   -12.7632 -12.5331 -11.9051 -11.7478 -11.5671 -11.3096 -11.2225 -11.2132
   -11.1744 -10.9949 -10.9922 -10.8832 -10.8679 -10.8445 -10.6299 -10.5657
   -10.5641 -10.5448 -10.5191 -10.3702 -10.2886 -10.2736  -9.8311  -9.6303
    -4.7712  -4.7601  -4.7563  -4.5329  -4.5288  -4.5169  -4.2558  -3.9750
    -3.7143  -3.1809  -3.1647  -3.1515  -3.1482  -3.0672  -3.0308  -3.0135
    -3.0050  -2.8200  -2.7916  -2.7841  -2.7778  -2.7729  -2.7443  -2.4821
    -2.4756  -2.3919  -2.3128  -2.2649  -1.8901  -1.8828  -1.8625  -1.8603
    -1.8157  -1.7833  -1.7611  -1.6845  -1.6802  -1.6334  -1.5056  -1.4988
    -1.4656  -1.4530  -1.4097  -1.1499  -1.0922  -1.0405  -0.9374  -0.8128
    -0.7871  -0.7789  -0.7467  -0.7237  -0.6906  -0.6467  -0.5830  -0.4239
    -0.3628  -0.2125  -0.1480  -0.1067  -0.1012  -0.0832  -0.0077   0.0260
     0.0469   0.1244   0.1588   0.5307   0.5480   0.5635   0.6220   0.6387
     0.7262   0.7526   0.9182   1.0363   1.0740   1.1281   1.1672   1.3291
     1.4218   1.4727   1.5414   1.8611   1.8782   1.9386   1.9577   1.9678
     2.1171   2.3913   2.6863   2.7594   2.9814   3.0387   3.0435   3.0939
     3.2036   3.3028   3.3506   3.3576   3.5636   3.6449   3.6814   3.6946
     3.7240   3.7418

          k = 0.0120 0.3848 0.0261 ( 43079 PWs)   bands (ev):

   -12.3621 -12.1353 -11.6787 -11.5925 -11.4853 -11.4117 -11.2923 -11.2720
   -11.1676 -11.1009 -11.0687 -11.0304 -11.0171 -10.8121 -10.7451 -10.7423
   -10.7215 -10.7094 -10.5743 -10.5264 -10.4869 -10.4357 -10.0019  -9.7689
    -4.1240  -4.1018  -3.9322  -3.9130  -3.7438  -3.6708  -3.4882  -3.4241
    -3.3990  -3.3764  -3.3550  -3.2557  -3.2291  -3.2127  -3.0977  -2.9321
    -2.9023  -2.8893  -2.8413  -2.7012  -2.5771  -2.5302  -2.4589  -2.3832
    -2.3742  -2.3514  -2.3092  -2.1225  -2.1047  -2.0620  -2.0384  -2.0011
    -1.9540  -1.8959  -1.8389  -1.6947  -1.6555  -1.6164  -1.5430  -1.4934
    -1.4506  -1.4269  -1.3896  -1.3601  -1.3080  -1.2411  -1.1707  -1.0958
    -1.0029  -0.9780  -0.9427  -0.9285  -0.8602  -0.8103  -0.8025  -0.7501
    -0.7100  -0.6367  -0.5608  -0.4759  -0.2758  -0.1938  -0.1366  -0.0723
     0.0903   0.1835   0.2196   0.2518   0.3128   0.3278   0.3643   0.4222
     0.5191   0.6575   0.7778   0.8990   0.9718   1.0138   1.1733   1.3757
     1.4124   1.4300   1.5726   1.5893   1.8208   1.8640   2.1650   2.2177
     2.3445   2.5210   2.5737   2.6400   2.7402   2.7674   2.7898   2.8363
     2.8894   2.9067   3.0513   3.1296   3.2331   3.5059   3.5692   3.5753
     3.6099   3.6678

          k = 0.3272-0.2038-0.0132 ( 43098 PWs)   bands (ev):

   -12.3622 -12.1347 -11.6786 -11.6143 -11.4470 -11.4114 -11.2929 -11.2704
   -11.1327 -11.0874 -11.0863 -11.0686 -11.0301 -10.8258 -10.7417 -10.7240
   -10.7234 -10.7129 -10.5662 -10.5261 -10.4970 -10.4372  -9.9980  -9.7737
    -4.1147  -4.1057  -3.9309  -3.9118  -3.7625  -3.6827  -3.4883  -3.4235
    -3.3895  -3.3557  -3.3486  -3.2665  -3.2546  -3.2129  -3.1086  -2.9400
    -2.9037  -2.8926  -2.8398  -2.6488  -2.5638  -2.5245  -2.4358  -2.3768
    -2.3703  -2.3638  -2.3066  -2.1251  -2.1134  -2.0772  -2.0231  -2.0025
    -1.9408  -1.8976  -1.8383  -1.7289  -1.6552  -1.6497  -1.5190  -1.4955
    -1.4733  -1.3935  -1.3820  -1.3618  -1.3382  -1.2623  -1.1746  -1.0863
    -1.0169  -0.9793  -0.9088  -0.8962  -0.8685  -0.8167  -0.8047  -0.7565
    -0.7312  -0.5911  -0.5616  -0.4468  -0.2771  -0.2285  -0.1133  -0.0662
     0.1002   0.1891   0.2238   0.2596   0.3004   0.3304   0.3847   0.4153
     0.5708   0.6472   0.6732   0.9251   0.9785   1.0122   1.1783   1.3285
     1.3453   1.3669   1.5780   1.7360   1.8378   1.8718   2.1504   2.2192
     2.3549   2.4853   2.5796   2.7041   2.7203   2.7444   2.7619   2.8110
     2.8869   3.0393   3.0769   3.1288   3.2554   3.5040   3.5547   3.5694
     3.5761   3.6117

          k = 0.3391 0.1810 0.0129 ( 43120 PWs)   bands (ev):

   -12.3654 -12.1475 -11.7359 -11.5922 -11.4973 -11.4824 -11.3097 -11.1638
   -11.1407 -11.0661 -11.0157 -10.9501 -10.9054 -10.9022 -10.8576 -10.8362
   -10.7383 -10.7060 -10.6805 -10.5734 -10.4238 -10.4042  -9.8403  -9.6337
    -4.1301  -4.1103  -3.9163  -3.9133  -3.7568  -3.7390  -3.7246  -3.6805
    -3.6200  -3.3725  -3.3515  -3.3292  -3.2264  -3.1685  -3.1538  -3.1417
    -3.1083  -3.0005  -2.9131  -2.7604  -2.6941  -2.6806  -2.4732  -2.3676
    -2.3492  -2.3123  -2.2887  -2.1579  -2.1431  -2.1075  -2.0457  -2.0191
    -2.0038  -1.9714  -1.7689  -1.7508  -1.6724  -1.6241  -1.5683  -1.5374
    -1.5077  -1.4714  -1.4300  -1.3205  -1.2719  -1.2327  -1.2165  -1.1403
    -1.0126  -0.9541  -0.9403  -0.9254  -0.8161  -0.7206  -0.7015  -0.6679
    -0.5341  -0.5100  -0.4895  -0.4515  -0.3008  -0.1252  -0.0821   0.0364
     0.1926   0.2037   0.2218   0.3405   0.3928   0.4402   0.5174   0.5283
     0.7551   0.8763   0.8815   0.8918   0.9023   0.9952   1.0495   1.3520
     1.4100   1.4314   1.5153   1.6646   1.8003   2.1296   2.1850   2.2047
     2.5149   2.6197   2.6512   2.7456   2.7738   2.8778   2.9008   3.0484
     3.0901   3.3058   3.3829   3.4153   3.4663   3.5483   3.5900   3.6502
     3.6742   3.7911

          k = 0.3152-0.5885-0.0393 ( 43161 PWs)   bands (ev):

   -11.7151 -11.6856 -11.6314 -11.5580 -11.5120 -11.4495 -11.4133 -11.3717
   -11.3226 -11.3139 -11.2416 -11.1961 -11.1875 -11.1382 -10.8750 -10.8094
   -10.6798 -10.6718 -10.5809 -10.5230 -10.4542 -10.3582  -9.9973  -9.7686
    -3.4922  -3.4812  -3.4485  -3.4260  -3.4202  -3.3937  -3.3544  -3.3413
    -3.2637  -3.1737  -3.1582  -3.1412  -3.1140  -3.0289  -2.9579  -2.9132
    -2.8796  -2.8471  -2.8315  -2.7461  -2.7318  -2.6866  -2.6441  -2.5542
    -2.5297  -2.5248  -2.5197  -2.3595  -2.3118  -2.2374  -2.1823  -2.1442
    -1.9282  -1.8613  -1.8251  -1.7736  -1.7669  -1.7168  -1.6772  -1.6049
    -1.5388  -1.5308  -1.5079  -1.5033  -1.4281  -1.3515  -1.3127  -1.2733
    -1.1954  -1.1659  -1.1263  -1.1220  -1.0235  -0.9867  -0.8681  -0.8110
    -0.7125  -0.7006  -0.5569  -0.4364  -0.3902  -0.1569  -0.1407  -0.1062
    -0.0675   0.0041   0.0574   0.1689   0.1969   0.3684   0.4429   0.6076
     0.7729   0.9476   1.1149   1.1499   1.1742   1.1941   1.2275   1.2715
     1.2859   1.4376   1.5941   1.8592   1.9110   1.9505   1.9854   2.0907
     2.1661   2.3175   2.3658   2.5009   2.5265   2.6767   2.7206   2.8237
     2.9533   3.0118   3.1002   3.1128   3.1930   3.2655   3.3245   3.4978
     3.5383   3.6418

     the Fermi energy is     1.7528 ev

!    total energy              =    -844.43463885 Ry
     Harris-Foulkes estimate   =    -844.43463740 Ry
     estimated scf accuracy    <       0.00000054 Ry

     The total energy is the sum of the following terms:

     one-electron contribution =   -5912.60937848 Ry
     hartree contribution      =    3040.48745657 Ry
     xc contribution           =    -333.25619094 Ry
     ewald contribution        =    2360.93356426 Ry
     smearing contrib. (-TS)   =       0.00990974 Ry

     convergence has been achieved in  19 iterations

     negative rho (up, down):  1.271E-03 0.000E+00

     Forces acting on atoms (cartesian axes, Ry/au):

     atom    1 type  1   force =    -0.01261063   -0.00659558    0.00349696
     atom    2 type  1   force =    -0.00867456   -0.00921883    0.02625754
     atom    3 type  1   force =    -0.01537057   -0.00802341    0.00314067
     atom    4 type  1   force =    -0.00077008    0.00048017   -0.00575216
     atom    5 type  1   force =     0.01848698   -0.00912118    0.00096762
     atom    6 type  1   force =     0.00966633   -0.00597711   -0.00151666
     atom    7 type  1   force =    -0.00876441    0.01499271    0.00158963
     atom    8 type  1   force =    -0.01914301   -0.00054949    0.00129308
     atom    9 type  1   force =    -0.01585944   -0.00817386    0.00584131
     atom   10 type  1   force =     0.01355307    0.00806689   -0.00595602
     atom   11 type  1   force =    -0.01379187   -0.00935144    0.00567213
     atom   12 type  1   force =     0.01521385    0.00798563   -0.00699898
     atom   13 type  2   force =     0.00104933   -0.00531848   -0.01070536
     atom   14 type  2   force =     0.00581393    0.00517096    0.01612768
     atom   15 type  2   force =     0.00145028    0.01002248   -0.01307019
     atom   16 type  2   force =    -0.00375731   -0.00427053    0.00497360
     atom   17 type  2   force =     0.00465841    0.00019543   -0.00605128
     atom   18 type  2   force =     0.00460189    0.00081316   -0.01682605
     atom   19 type  2   force =     0.00175300    0.00206712    0.00515720
     atom   20 type  2   force =     0.00044649    0.00004816    0.00526088
     atom   21 type  2   force =    -0.00441202   -0.00181952   -0.01360721
     atom   22 type  2   force =     0.00253236    0.00136571    0.01221698
     atom   23 type  2   force =    -0.00356185   -0.00255417   -0.01344622
     atom   24 type  2   force =     0.00316691    0.00182975    0.01248120
     atom   25 type  2   force =     0.01839126   -0.01275850    0.00395377
     atom   26 type  2   force =     0.00776772    0.01151128   -0.00797663
     atom   27 type  2   force =     0.00744240    0.01806709   -0.02521530
     atom   28 type  2   force =    -0.00092077    0.00139493    0.00650581
     atom   29 type  2   force =    -0.00458543   -0.00038803    0.01107065
     atom   30 type  2   force =    -0.00474970   -0.00067723    0.01105653
     atom   31 type  2   force =    -0.00148030   -0.00113978   -0.00175240
     atom   32 type  2   force =    -0.00107073   -0.00124633   -0.00881903
     atom   33 type  2   force =    -0.00253516   -0.00137606   -0.01139134
     atom   34 type  2   force =     0.00470108    0.00327073    0.01193022
     atom   35 type  2   force =    -0.00291164   -0.00107209   -0.01159507
     atom   36 type  2   force =     0.00427423    0.00234939    0.01168645

     Total force =     0.093348     Total SCF correction =     0.001689
 
     init_run     :      4.88s CPU      5.04s WALL (       1 calls)
     electrons    :    135.64s CPU    141.13s WALL (       1 calls)
     forces       :      2.65s CPU      2.75s WALL (       1 calls)

     Called by init_run:
     wfcinit      :      2.72s CPU      2.79s WALL (       1 calls)
     potinit      :      0.61s CPU      0.62s WALL (       1 calls)
     hinit0       :      0.77s CPU      0.78s WALL (       1 calls)

     Called by electrons:
     c_bands      :     95.54s CPU     97.73s WALL (      19 calls)
     sum_band     :     21.22s CPU     22.82s WALL (      19 calls)
     v_of_rho     :      1.59s CPU      1.68s WALL (      20 calls)
     newd         :      6.38s CPU      7.21s WALL (      20 calls)
     mix_rho      :     11.05s CPU     11.85s WALL (      19 calls)

     Called by c_bands:
     init_us_2    :      1.66s CPU      1.70s WALL (     200 calls)
     cegterg      :     88.29s CPU     90.39s WALL (      95 calls)

     Called by sum_band:
     sum_band:bec :      0.11s CPU      0.11s WALL (      95 calls)
     addusdens    :      7.57s CPU      8.89s WALL (      19 calls)

     Called by *egterg:
     h_psi        :     51.52s CPU     52.81s WALL (     378 calls)
     s_psi        :      9.55s CPU      9.59s WALL (     378 calls)
     g_psi        :      0.16s CPU      0.16s WALL (     278 calls)
     cdiaghg      :     13.74s CPU     13.99s WALL (     373 calls)

     Called by h_psi:
     h_psi:pot    :     51.24s CPU     52.28s WALL (     378 calls)
     h_psi:calbec :      9.89s CPU     10.19s WALL (     378 calls)
     vloc_psi     :     31.40s CPU     31.95s WALL (     378 calls)
     add_vuspsi   :      9.95s CPU     10.14s WALL (     378 calls)

     General routines
     calbec       :     14.88s CPU     15.32s WALL (     493 calls)
     fft          :      1.51s CPU      1.60s WALL (     269 calls)
     ffts         :      5.94s CPU      6.68s WALL (    4497 calls)
     fftw         :     34.87s CPU     35.51s WALL (   68160 calls)
     interpolate  :      0.15s CPU      0.16s WALL (      20 calls)
 
     Parallel routines
     fft_scatt_xy :      4.05s CPU      4.10s WALL (   72926 calls)
     fft_scatt_yz :     17.98s CPU     18.96s WALL (   72926 calls)
 
     PWSCF        :   2m23.79s CPU   2m29.65s WALL

 
   This run was terminated on:  17:19:32  18Oct2021            

=------------------------------------------------------------------------------=
   JOB DONE.
=------------------------------------------------------------------------------=
