
     Program PWSCF v.6.4 starts on 24Dec2021 at 23: 7:29 

     This program is part of the open-source Quantum ESPRESSO suite
     for quantum simulation of materials; please cite
         "P. Giannozzi et al., J. Phys.:Condens. Matter 21 395502 (2009);
         "P. Giannozzi et al., J. Phys.:Condens. Matter 29 465901 (2017);
          URL http://www.quantum-espresso.org", 
     in publications or presentations arising from this work. More details at
     http://www.quantum-espresso.org/quote

     Parallel version (MPI), running on    40 processors

     MPI processes distributed on     1 nodes
     R & G space division:  proc/nbgrp/npool/nimage =      40
     Waiting for input...
     Reading input from standard input
Warning: card    &IONS ignored
Warning: card      ION_DYNAMICS = 'BFGS' ignored
Warning: card   / ignored
Warning: card    &CELL ignored
Warning: card      CELL_DYNAMICS = 'BFGS', ignored
Warning: card    / ignored

     Current dimensions of program PWSCF are:
     Max number of different atomic species (ntypx) = 10
     Max number of k-points (npk) =  40000
     Max angular momentum in pseudopotentials (lmaxx) =  3

     Subspace diagonalization in iterative solution of the eigenvalue problem:
     one sub-group per band group will be used
     scalapack distributed-memory algorithm (size of sub-group:  4*  4 procs)

 
     Parallelization info
     --------------------
     sticks:   dense  smooth     PW     G-vecs:    dense   smooth      PW
     Min         253     127     34                21375     7557    1072
     Max         254     128     35                21382     7561    1078
     Sum       10159    5081   1383               855213   302359   42983
 


     bravais-lattice index     =            0
     lattice parameter (alat)  =      18.2984  a.u.
     unit-cell volume          =    7414.7116 (a.u.)^3
     number of atoms/cell      =           48
     number of atomic types    =            2
     number of electrons       =       288.00
     number of Kohn-Sham states=          173
     kinetic-energy cutoff     =      45.0000  Ry
     charge density cutoff     =     360.0000  Ry
     convergence threshold     =      1.0E-06
     mixing beta               =       0.7000
     number of iterations used =            8  local-TF  mixing
     Exchange-correlation      = SLA PW GGX GGC ( 1  4  2  2 0 0)

     celldm(1)=  18.298380  celldm(2)=   0.000000  celldm(3)=   0.000000
     celldm(4)=   0.000000  celldm(5)=   0.000000  celldm(6)=   0.000000

     crystal axes: (cart. coord. in units of alat)
               a(1) = (   1.000000   0.000000   0.000000 )  
               a(2) = (  -0.067439   1.059555   0.000000 )  
               a(3) = (  -0.077837  -0.011955   1.142176 )  

     reciprocal axes: (cart. coord. in units 2 pi/alat)
               b(1) = (  1.000000  0.063648  0.068814 )  
               b(2) = (  0.000000  0.943793  0.009878 )  
               b(3) = (  0.000000  0.000000  0.875522 )  


     PseudoPot. # 1 for Mo read from file:
     ~/pseudo/Mo.pw91-n-van.UPF
     MD5 check sum: Not computed, couldn't open file
     Pseudo is Ultrasoft + core correction, Zval =  6.0
     Generated by new atomic code, or converted to UPF format
     Using radial grid of  965 points,  3 beta functions with: 
                l(1) =   1
                l(2) =   2
                l(3) =   2
     Q(r) pseudized with  8 coefficients,  rinner =    1.000   1.000   1.000
                                                       1.200   1.200

     PseudoPot. # 2 for S  read from file:
     ~/pseudo/S.pw91-van_ak.UPF
     MD5 check sum: Not computed, couldn't open file
     Pseudo is Ultrasoft, Zval =  6.0
     Generated by new atomic code, or converted to UPF format
     Using radial grid of  811 points,  6 beta functions with: 
                l(1) =   0
                l(2) =   0
                l(3) =   1
                l(4) =   1
                l(5) =   2
                l(6) =   2
     Q(r) pseudized with  8 coefficients,  rinner =    1.100   1.100   1.100
                                                       1.100   1.100

     atomic species   valence    mass     pseudopotential
        Mo             6.00    95.50000     Mo( 1.00)
        S              6.00    32.06500     S ( 1.00)

     No symmetry found



   Cartesian axes

     site n.     atom                  positions (alat units)
         1           Mo  tau(   1) = (   0.0220291   0.7124903   0.7796612  )
         2           Mo  tau(   2) = (   0.2317957   0.6998475   1.0300777  )
         3           Mo  tau(   3) = (   0.0027518   0.9186795   0.9994849  )
         4           Mo  tau(   4) = (   0.2155634   0.9223949   0.8092643  )
         5           Mo  tau(   5) = (   0.6729689   0.0343380   0.7017960  )
         6           Mo  tau(   6) = (   0.8009002   0.1763510   0.9884201  )
         7           Mo  tau(   7) = (   0.4558682   0.4592350   1.0391717  )
         8           Mo  tau(   8) = (   0.7113938   0.3507195   0.7682988  )
         9           Mo  tau(   9) = (   0.0755654   0.1661641   0.1169361  )
        10           Mo  tau(  10) = (   0.5204242   0.2453347   0.5832847  )
        11           Mo  tau(  11) = (   0.2635205   0.2040935   0.3223619  )
        12           Mo  tau(  12) = (   0.3334208   0.4544235   0.0991304  )
        13           Mo  tau(  13) = (   0.5547321   0.6685683   0.1176082  )
        14           Mo  tau(  14) = (   0.7801499   0.6980027   0.5295320  )
        15           Mo  tau(  15) = (   0.6049687   0.8804777   0.3865563  )
        16           Mo  tau(  16) = (   0.7980979   0.8732793   0.1476403  )
        17           S   tau(  17) = (  -0.0279312   0.6705160   1.0179628  )
        18           S   tau(  18) = (   0.1188320   0.3979871   0.2136428  )
        19           S   tau(  19) = (   0.2649196   0.6909439   0.7654540  )
        20           S   tau(  20) = (   0.3542398   0.8522695   0.4485922  )
        21           S   tau(  21) = (   0.0382142   0.1237812   1.0100179  )
        22           S   tau(  22) = (   0.2157332   0.4359066   1.0050945  )
        23           S   tau(  23) = (   0.0379363   0.1374195   0.3713032  )
        24           S   tau(  24) = (   0.3369397   0.3657401   0.4820548  )
        25           S   tau(  25) = (   0.5877113   1.0409225   0.9528206  )
        26           S   tau(  26) = (   0.5631344   0.9290713   0.1456590  )
        27           S   tau(  27) = (   0.8759171   0.1706350   0.7410868  )
        28           S   tau(  28) = (   0.8040050   0.5820209   0.7517019  )
        29           S   tau(  29) = (   0.4954986   0.6920861   1.0120597  )
        30           S   tau(  30) = (   0.7405679   0.9073938   1.0324536  )
        31           S   tau(  31) = (   0.4208388   0.0384136   0.6940582  )
        32           S   tau(  32) = (   0.8527042   0.8933918   0.3882625  )
        33           S   tau(  33) = (   0.2729019   1.0274312   0.3524523  )
        34           S   tau(  34) = (  -0.0168446   0.9500355   0.7522584  )
        35           S   tau(  35) = (   0.3406600   0.1897218   0.0930006  )
        36           S   tau(  36) = (   0.3043314   0.6937037   0.1534352  )
        37           S   tau(  37) = (   0.0267120   0.6525051   0.5302890  )
        38           S   tau(  38) = (   0.6407800   0.8570054   0.6521282  )
        39           S   tau(  39) = (   0.0301635   0.9734529   0.1099141  )
        40           S   tau(  40) = (   0.2466568   0.9669698   1.0416917  )
        41           S   tau(  41) = (   0.5976940   0.6300786   0.3793638  )
        42           S   tau(  42) = (   0.4679709   0.3487363   0.8056921  )
        43           S   tau(  43) = (   0.8112187   0.6413071   0.1192692  )
        44           S   tau(  44) = (   0.8306493   0.1628464   0.0919332  )
        45           S   tau(  45) = (   0.6517216   0.0713711   0.4486027  )
        46           S   tau(  46) = (   0.7204744   0.3827098   0.5171408  )
        47           S   tau(  47) = (   0.5719962   0.4103551   0.1313003  )
        48           S   tau(  48) = (   0.7171594   0.4059397   1.0148994  )

     number of k points=     8  Marzari-Vanderbilt smearing, width (Ry)=  0.0200
                       cart. coord. in units 2pi/alat
        k(    1) = (   0.0000000   0.0000000   0.0000000), wk =   0.2500000
        k(    2) = (   0.0000000   0.0000000  -0.4377610), wk =   0.2500000
        k(    3) = (   0.0000000  -0.4718963  -0.0049392), wk =   0.2500000
        k(    4) = (   0.0000000  -0.4718963  -0.4427002), wk =   0.2500000
        k(    5) = (  -0.5000000  -0.0318241  -0.0344072), wk =   0.2500000
        k(    6) = (  -0.5000000  -0.0318241  -0.4721682), wk =   0.2500000
        k(    7) = (  -0.5000000  -0.5037204  -0.0393464), wk =   0.2500000
        k(    8) = (  -0.5000000  -0.5037204  -0.4771074), wk =   0.2500000

     Dense  grid:   855213 G-vectors     FFT dimensions: ( 120, 120, 128)

     Smooth grid:   302359 G-vectors     FFT dimensions: (  80,  90,  90)

     Estimated max dynamical RAM per process >     163.34 MB

     Estimated total dynamical RAM >       6.38 GB

     Initial potential from superposition of free atoms

     starting charge  287.97477, renormalised to  288.00000
     Starting wfcs are  272 randomized atomic wfcs

     total cpu time spent up to now is        9.3 secs

     Self-consistent Calculation

     iteration #  1     ecut=    45.00 Ry     beta= 0.70
     Davidson diagonalization with overlap
     ethr =  1.00E-02,  avg # of iterations =  2.0

     total cpu time spent up to now is       27.4 secs

     total energy              =   -1123.74671450 Ry
     Harris-Foulkes estimate   =   -1127.55549558 Ry
     estimated scf accuracy    <       9.99577083 Ry

     iteration #  2     ecut=    45.00 Ry     beta= 0.70
     Davidson diagonalization with overlap
     ethr =  3.47E-03,  avg # of iterations =  2.0

     total cpu time spent up to now is       43.4 secs

     total energy              =   -1125.26582149 Ry
     Harris-Foulkes estimate   =   -1125.99135853 Ry
     estimated scf accuracy    <       3.71821416 Ry

     iteration #  3     ecut=    45.00 Ry     beta= 0.70
     Davidson diagonalization with overlap
     ethr =  1.29E-03,  avg # of iterations =  1.6

     total cpu time spent up to now is       56.0 secs

     total energy              =   -1125.61137366 Ry
     Harris-Foulkes estimate   =   -1125.74109284 Ry
     estimated scf accuracy    <       0.89877102 Ry

     iteration #  4     ecut=    45.00 Ry     beta= 0.70
     Davidson diagonalization with overlap
     ethr =  3.12E-04,  avg # of iterations =  2.0

     total cpu time spent up to now is       68.7 secs

     total energy              =   -1125.65317577 Ry
     Harris-Foulkes estimate   =   -1125.68634454 Ry
     estimated scf accuracy    <       0.12452486 Ry

     iteration #  5     ecut=    45.00 Ry     beta= 0.70
     Davidson diagonalization with overlap
     ethr =  4.32E-05,  avg # of iterations =  8.0

     total cpu time spent up to now is       94.8 secs

     total energy              =   -1125.67364469 Ry
     Harris-Foulkes estimate   =   -1125.68698244 Ry
     estimated scf accuracy    <       0.07504026 Ry

     iteration #  6     ecut=    45.00 Ry     beta= 0.70
     Davidson diagonalization with overlap
     ethr =  2.61E-05,  avg # of iterations =  2.0

     total cpu time spent up to now is      107.6 secs

     total energy              =   -1125.67794306 Ry
     Harris-Foulkes estimate   =   -1125.68150402 Ry
     estimated scf accuracy    <       0.02645887 Ry

     iteration #  7     ecut=    45.00 Ry     beta= 0.70
     Davidson diagonalization with overlap
     ethr =  9.19E-06,  avg # of iterations =  3.1

     total cpu time spent up to now is      121.3 secs

     total energy              =   -1125.67985874 Ry
     Harris-Foulkes estimate   =   -1125.68038289 Ry
     estimated scf accuracy    <       0.00448882 Ry

     iteration #  8     ecut=    45.00 Ry     beta= 0.70
     Davidson diagonalization with overlap
     ethr =  1.56E-06,  avg # of iterations =  9.2

     total cpu time spent up to now is      145.2 secs

     total energy              =   -1125.68031393 Ry
     Harris-Foulkes estimate   =   -1125.68061527 Ry
     estimated scf accuracy    <       0.00176542 Ry

     iteration #  9     ecut=    45.00 Ry     beta= 0.70
     Davidson diagonalization with overlap
     ethr =  6.13E-07,  avg # of iterations =  2.4

     total cpu time spent up to now is      159.1 secs

     total energy              =   -1125.68043908 Ry
     Harris-Foulkes estimate   =   -1125.68052646 Ry
     estimated scf accuracy    <       0.00072068 Ry

     iteration # 10     ecut=    45.00 Ry     beta= 0.70
     Davidson diagonalization with overlap
     ethr =  2.50E-07,  avg # of iterations =  3.1

     total cpu time spent up to now is      174.0 secs

     total energy              =   -1125.68046189 Ry
     Harris-Foulkes estimate   =   -1125.68053729 Ry
     estimated scf accuracy    <       0.00039139 Ry

     iteration # 11     ecut=    45.00 Ry     beta= 0.70
     Davidson diagonalization with overlap
     ethr =  1.36E-07,  avg # of iterations =  2.1

     total cpu time spent up to now is      187.0 secs

     total energy              =   -1125.68050575 Ry
     Harris-Foulkes estimate   =   -1125.68051194 Ry
     estimated scf accuracy    <       0.00006929 Ry

     iteration # 12     ecut=    45.00 Ry     beta= 0.70
     Davidson diagonalization with overlap
     ethr =  2.41E-08,  avg # of iterations =  2.8

     total cpu time spent up to now is      201.2 secs

     total energy              =   -1125.68051150 Ry
     Harris-Foulkes estimate   =   -1125.68051447 Ry
     estimated scf accuracy    <       0.00001675 Ry

     iteration # 13     ecut=    45.00 Ry     beta= 0.70
     Davidson diagonalization with overlap
     ethr =  5.82E-09,  avg # of iterations =  3.5

     total cpu time spent up to now is      217.4 secs

     total energy              =   -1125.68051435 Ry
     Harris-Foulkes estimate   =   -1125.68051502 Ry
     estimated scf accuracy    <       0.00000754 Ry

     iteration # 14     ecut=    45.00 Ry     beta= 0.70
     Davidson diagonalization with overlap
     ethr =  2.62E-09,  avg # of iterations =  1.8

     total cpu time spent up to now is      229.9 secs

     total energy              =   -1125.68051471 Ry
     Harris-Foulkes estimate   =   -1125.68051493 Ry
     estimated scf accuracy    <       0.00000167 Ry

     iteration # 15     ecut=    45.00 Ry     beta= 0.70
     Davidson diagonalization with overlap
     ethr =  5.80E-10,  avg # of iterations =  3.9

     total cpu time spent up to now is      244.8 secs

     End of self-consistent calculation

          k = 0.0000 0.0000 0.0000 ( 37849 PWs)   bands (ev):

    -9.6319  -8.8634  -8.2444  -7.8671  -7.8213  -7.7754  -7.6908  -7.5350
    -7.4848  -7.4524  -7.4049  -7.3403  -7.3052  -7.2834  -7.2082  -7.2043
    -7.1406  -7.1133  -7.0381  -6.9718  -6.9172  -6.8594  -6.8002  -6.7503
    -6.7281  -6.6571  -6.5392  -6.3880  -6.2354  -6.0873  -5.9603  -5.0859
    -0.5289  -0.3201  -0.0827  -0.0622   0.0069   0.1328   0.1663   0.2649
     0.2774   0.3505   0.4638   0.5139   0.5431   0.5925   0.6443   0.6553
     0.7319   0.8140   0.8309   0.8534   0.9545   0.9922   1.0225   1.0679
     1.0965   1.1287   1.1821   1.1904   1.2459   1.2995   1.3298   1.3488
     1.4278   1.4663   1.5161   1.5570   1.5724   1.6500   1.6880   1.7227
     1.7367   1.7840   1.8121   1.8418   1.8811   1.9388   1.9923   2.0074
     2.0372   2.0720   2.0997   2.1158   2.1785   2.1901   2.2357   2.2750
     2.3374   2.3743   2.4140   2.4460   2.5382   2.5748   2.6180   2.6782
     2.6998   2.7677   2.7780   2.8411   2.8965   2.9503   2.9757   3.0600
     3.1679   3.1820   3.2538   3.3055   3.3972   3.4108   3.5450   3.5646
     3.6058   3.6652   3.7201   3.8537   3.8846   3.9258   3.9957   4.0476
     4.1153   4.2059   4.2286   4.3047   4.3750   4.4440   4.5082   4.6418
     4.6558   4.7585   4.7864   4.8625   4.9531   4.9741   5.0381   5.1439
     5.2225   5.2617   5.3536   5.3663   5.4882   5.5764   5.6139   5.7453
     5.7723   5.8553   5.9483   6.0112   6.1321   6.2305   6.2504   6.3057
     6.3462   6.4180   6.4762   6.4947   6.5956   6.6270   6.6835   6.7353
     6.7923   6.8711   6.8979   6.9425   6.9902   7.0255   7.0915   7.1293
     7.2010   7.2402   7.2951   7.4074   7.4491

          k = 0.0000 0.0000-0.4378 ( 37784 PWs)   bands (ev):

    -9.6298  -8.8630  -8.2242  -7.9889  -7.8036  -7.7074  -7.6604  -7.5471
    -7.4747  -7.4743  -7.3983  -7.3809  -7.2981  -7.2790  -7.2492  -7.1337
    -7.1168  -7.1020  -7.0428  -6.9595  -6.9346  -6.8569  -6.8053  -6.7747
    -6.7237  -6.6648  -6.5341  -6.3913  -6.2305  -6.0852  -5.9611  -5.0840
    -0.5444  -0.2658  -0.1476  -0.0368   0.0425   0.1429   0.1649   0.2322
     0.2745   0.3550   0.4332   0.4765   0.5190   0.5919   0.6466   0.6871
     0.7503   0.7554   0.8125   0.8630   0.8909   0.9513   1.0082   1.0292
     1.0941   1.1260   1.1417   1.1598   1.2565   1.2886   1.3479   1.4042
     1.4254   1.4885   1.4917   1.5386   1.5885   1.6093   1.6890   1.7076
     1.7295   1.8239   1.8543   1.8830   1.9397   1.9802   2.0054   2.0388
     2.0923   2.1267   2.1467   2.1766   2.2253   2.2299   2.2660   2.2913
     2.3509   2.3815   2.4425   2.4626   2.4941   2.5470   2.5843   2.6175
     2.6790   2.6800   2.7972   2.8104   2.8899   2.9803   3.0643   3.0820
     3.1734   3.2080   3.2624   3.3095   3.3312   3.4562   3.5017   3.5456
     3.5916   3.6886   3.7474   3.7843   3.8520   3.8882   3.9707   4.0064
     4.1153   4.1658   4.2852   4.3267   4.4202   4.4853   4.5781   4.5971
     4.6942   4.7551   4.8055   4.8490   4.8767   4.9779   4.9921   5.0398
     5.1207   5.2424   5.3655   5.4879   5.5297   5.5470   5.6607   5.7532
     5.7738   5.8094   5.8652   6.0072   6.0409   6.1874   6.3159   6.3390
     6.3678   6.4135   6.5013   6.5252   6.5670   6.5865   6.6190   6.7160
     6.7631   6.8609   6.9291   6.9633   7.0122   7.0317   7.0966   7.1528
     7.2338   7.2524   7.3342   7.3939   7.4439

          k = 0.0000-0.4719-0.0049 ( 37786 PWs)   bands (ev):

    -9.6299  -8.8579  -8.2167  -7.9921  -7.7841  -7.7074  -7.6540  -7.6048
    -7.5170  -7.4123  -7.3903  -7.3677  -7.3332  -7.2791  -7.2587  -7.1949
    -7.1104  -7.0562  -7.0245  -6.9896  -6.9174  -6.8588  -6.8172  -6.7674
    -6.7060  -6.6506  -6.5380  -6.3741  -6.2310  -6.0895  -5.9597  -5.0865
    -0.5292  -0.2350  -0.0838  -0.0341   0.0794   0.1266   0.1850   0.2326
     0.3140   0.3670   0.3809   0.4183   0.5214   0.5313   0.5993   0.6303
     0.7410   0.7684   0.8151   0.8822   0.9117   0.9719   1.0305   1.0725
     1.0855   1.1471   1.1699   1.2050   1.2959   1.3089   1.3337   1.3640
     1.4207   1.4452   1.4678   1.5556   1.5867   1.6188   1.6740   1.7259
     1.7444   1.7624   1.8028   1.8472   1.9195   1.9450   1.9873   2.0096
     2.0319   2.0882   2.1185   2.1390   2.1736   2.1973   2.2372   2.2529
     2.2921   2.3535   2.4142   2.4191   2.4807   2.5655   2.6099   2.6833
     2.7103   2.7923   2.8471   2.8964   2.9345   2.9624   3.0321   3.0490
     3.1427   3.2622   3.2825   3.3731   3.4079   3.4932   3.5113   3.5454
     3.5969   3.6344   3.7109   3.7938   3.9003   3.9784   4.0403   4.1614
     4.1708   4.2211   4.2541   4.3277   4.4043   4.4449   4.4943   4.5318
     4.6293   4.6472   4.7527   4.8537   4.9221   4.9949   5.0823   5.1060
     5.1458   5.2486   5.3635   5.4040   5.4847   5.6356   5.6869   5.7303
     5.7927   5.8212   5.8835   5.9248   6.0807   6.1224   6.1995   6.2444
     6.2733   6.3974   6.4688   6.5064   6.5638   6.6288   6.6831   6.7587
     6.7931   6.8471   6.8599   6.9379   7.0411   7.0858   7.1566   7.2359
     7.2876   7.3157   7.3657   7.3977   7.4710

          k = 0.0000-0.4719-0.4427 ( 37802 PWs)   bands (ev):

    -9.6280  -8.8587  -8.1850  -7.9870  -7.8899  -7.7602  -7.6209  -7.5900
    -7.4482  -7.4244  -7.3907  -7.3710  -7.3222  -7.2609  -7.2325  -7.1795
    -7.1361  -7.0558  -7.0269  -6.9907  -6.9280  -6.8477  -6.8120  -6.7868
    -6.7148  -6.6508  -6.5323  -6.3814  -6.2282  -6.0855  -5.9605  -5.0857
    -0.5417  -0.1838  -0.1454   0.0358   0.0525   0.0879   0.2022   0.2413
     0.2931   0.3685   0.3771   0.4003   0.4267   0.5541   0.6635   0.6712
     0.7405   0.7654   0.7941   0.8575   0.8993   0.9699   1.0145   1.0426
     1.0849   1.1345   1.1450   1.1612   1.2276   1.2737   1.3388   1.3829
     1.4184   1.4397   1.5023   1.5320   1.5543   1.6255   1.6592   1.7000
     1.7648   1.7898   1.8389   1.8955   1.9272   1.9744   2.0122   2.0414
     2.0639   2.1205   2.1287   2.1780   2.2052   2.2495   2.2877   2.3133
     2.3430   2.3631   2.4111   2.4408   2.4677   2.5637   2.6215   2.6461
     2.7031   2.7550   2.8144   2.8517   2.9150   2.9807   3.0704   3.1363
     3.1985   3.2503   3.2970   3.3253   3.3561   3.4046   3.4564   3.5914
     3.6517   3.6721   3.7443   3.7721   3.8760   3.9351   3.9435   4.0828
     4.1337   4.1740   4.2659   4.3566   4.4091   4.4907   4.5368   4.5852
     4.6478   4.7554   4.7770   4.7976   4.8829   4.9408   5.0197   5.1000
     5.1291   5.2247   5.3213   5.4736   5.5258   5.5650   5.6772   5.7284
     5.7872   5.8410   5.9019   5.9636   6.0155   6.1457   6.2356   6.2582
     6.2780   6.3985   6.4244   6.5043   6.5529   6.5897   6.6914   6.7141
     6.7810   6.8597   6.8866   6.9984   7.0769   7.0930   7.1417   7.2105
     7.2327   7.2990   7.3242   7.3817   7.4594

          k =-0.5000-0.0318-0.0344 ( 37774 PWs)   bands (ev):

    -9.6262  -8.8580  -8.1719  -8.0646  -7.7645  -7.7220  -7.6425  -7.5928
    -7.5208  -7.4892  -7.4062  -7.3568  -7.2873  -7.2393  -7.2259  -7.1746
    -7.1353  -7.0825  -7.0357  -6.9751  -6.9483  -6.8609  -6.8140  -6.7528
    -6.7086  -6.6532  -6.5319  -6.3866  -6.2331  -6.0857  -5.9462  -5.0830
    -0.5324  -0.0976  -0.0092   0.0071   0.0447   0.1228   0.1841   0.2257
     0.2772   0.3453   0.3626   0.4129   0.4987   0.5901   0.6102   0.6632
     0.7608   0.7960   0.8255   0.8479   0.9102   0.9580   0.9797   1.0244
     1.0515   1.1190   1.1747   1.1979   1.2566   1.2826   1.3104   1.3477
     1.3836   1.4700   1.4913   1.5568   1.5834   1.6314   1.6659   1.6887
     1.7681   1.7906   1.8315   1.8570   1.8812   1.9340   1.9761   1.9941
     2.0204   2.0536   2.1034   2.1532   2.1883   2.2155   2.2396   2.2797
     2.3346   2.3940   2.4123   2.4449   2.5099   2.5483   2.5771   2.6114
     2.7151   2.7273   2.7651   2.8449   2.9453   2.9775   3.0528   3.0966
     3.1165   3.2282   3.2685   3.3299   3.3519   3.4259   3.4770   3.5431
     3.5886   3.7331   3.7354   3.8501   3.8568   3.9615   4.0061   4.0871
     4.1296   4.1460   4.2340   4.3255   4.3997   4.4751   4.5783   4.6179
     4.6869   4.7761   4.8039   4.8305   4.9229   5.0474   5.0926   5.2041
     5.2302   5.2491   5.3932   5.4543   5.5467   5.5530   5.6589   5.7147
     5.7333   5.8519   5.8768   5.9838   6.1092   6.1580   6.1833   6.2556
     6.3744   6.4329   6.4731   6.5241   6.5663   6.6019   6.6670   6.6851
     6.7493   6.8297   6.9675   7.0011   7.0519   7.1007   7.1302   7.1480
     7.2281   7.2315   7.3346   7.3522   7.4007

          k =-0.5000-0.0318-0.4722 ( 37776 PWs)   bands (ev):

    -9.6246  -8.8562  -8.1847  -7.9645  -7.9309  -7.7497  -7.6123  -7.5803
    -7.5232  -7.4656  -7.3614  -7.3248  -7.2825  -7.2595  -7.2290  -7.1948
    -7.1315  -7.0996  -7.0124  -6.9706  -6.9436  -6.8482  -6.8114  -6.7717
    -6.7243  -6.6494  -6.5301  -6.3894  -6.2282  -6.0840  -5.9498  -5.0825
    -0.5252  -0.1308  -0.0451   0.0371   0.0637   0.1048   0.1687   0.2332
     0.2811   0.3507   0.3647   0.4757   0.5117   0.5451   0.6153   0.6350
     0.7098   0.7394   0.7804   0.8480   0.9163   0.9626   0.9756   1.0168
     1.0693   1.1087   1.1331   1.2005   1.2383   1.2987   1.3231   1.3600
     1.4280   1.4693   1.4794   1.5214   1.6063   1.6198   1.6820   1.6900
     1.7333   1.7773   1.8289   1.8754   1.8932   1.9390   1.9843   2.0046
     2.0647   2.1293   2.1467   2.1745   2.1985   2.2273   2.2701   2.2973
     2.3436   2.3914   2.4228   2.4747   2.5410   2.5544   2.6234   2.6498
     2.7234   2.7422   2.7708   2.8508   2.8788   2.9398   2.9790   3.0347
     3.0659   3.1941   3.2876   3.3558   3.4074   3.5059   3.5379   3.6030
     3.6350   3.6505   3.6851   3.7740   3.8217   3.9469   4.0383   4.0615
     4.1575   4.2084   4.2224   4.3124   4.3576   4.4059   4.5594   4.6231
     4.6738   4.7420   4.8212   4.8501   4.9559   4.9952   5.1102   5.1604
     5.2782   5.2937   5.4027   5.5089   5.5187   5.6142   5.6247   5.6801
     5.7447   5.8362   5.8637   5.9319   6.0614   6.0841   6.2119   6.2765
     6.2992   6.3898   6.4350   6.4966   6.5791   6.6067   6.6678   6.7499
     6.8403   6.8895   6.9435   6.9606   7.0049   7.0225   7.1352   7.1809
     7.2031   7.2702   7.3168   7.3824   7.4340

          k =-0.5000-0.5037-0.0393 ( 37778 PWs)   bands (ev):

    -9.6247  -8.8533  -8.1505  -8.0192  -7.8954  -7.7615  -7.6367  -7.5573
    -7.5046  -7.4344  -7.3894  -7.3497  -7.2997  -7.2826  -7.2480  -7.2070
    -7.1174  -7.0627  -7.0515  -6.9888  -6.9117  -6.8623  -6.7933  -6.7640
    -6.7154  -6.6442  -6.5204  -6.3693  -6.2292  -6.0900  -5.9476  -5.0846
    -0.5340  -0.1315  -0.0718   0.0216   0.0681   0.1632   0.2238   0.2748
     0.2838   0.3333   0.3771   0.4422   0.5245   0.5623   0.6596   0.7087
     0.7276   0.7651   0.8450   0.8626   0.8942   0.9416   0.9530   1.0044
     1.0285   1.0808   1.1163   1.1469   1.2245   1.2560   1.2721   1.3518
     1.4170   1.4478   1.4982   1.5245   1.5957   1.6157   1.6679   1.7345
     1.7510   1.7790   1.8206   1.8404   1.8582   1.9436   1.9655   1.9965
     2.0362   2.0749   2.1176   2.1408   2.1847   2.2038   2.2350   2.2856
     2.2905   2.4050   2.4084   2.4315   2.4751   2.5101   2.5828   2.6192
     2.6913   2.7174   2.8489   2.8776   2.8902   2.9760   3.0601   3.0855
     3.1772   3.2415   3.3065   3.3266   3.4132   3.5048   3.5311   3.5472
     3.6606   3.7122   3.8028   3.8794   3.8960   3.9615   4.0227   4.0695
     4.1969   4.2318   4.2941   4.3230   4.3579   4.4062   4.5159   4.5940
     4.6716   4.7271   4.8200   4.8340   4.9679   4.9839   5.0869   5.1868
     5.2430   5.2792   5.3402   5.3551   5.5371   5.5648   5.6944   5.7349
     5.7678   5.8132   5.8964   5.9688   6.0575   6.1051   6.2204   6.2299
     6.3222   6.3555   6.4193   6.5174   6.5837   6.6239   6.6550   6.6832
     6.7585   6.7918   6.8739   6.9318   6.9973   7.0607   7.1721   7.2036
     7.2421   7.3098   7.3600   7.3959   7.4750

          k =-0.5000-0.5037-0.4771 ( 37810 PWs)   bands (ev):

    -9.6232  -8.8525  -8.1486  -7.9835  -7.8618  -7.8297  -7.6917  -7.6155
    -7.4921  -7.4581  -7.3793  -7.3594  -7.3002  -7.2302  -7.1984  -7.1446
    -7.1044  -7.0549  -7.0425  -7.0165  -6.9290  -6.8456  -6.8138  -6.7717
    -6.7162  -6.6459  -6.5242  -6.3803  -6.2303  -6.0848  -5.9491  -5.0846
    -0.5278  -0.1123  -0.0462  -0.0009   0.0283   0.1248   0.1679   0.2426
     0.3191   0.3559   0.3715   0.4448   0.5390   0.5764   0.6217   0.6343
     0.7419   0.7538   0.8391   0.8418   0.9214   0.9603   0.9702   1.0479
     1.0656   1.0851   1.1237   1.1501   1.2326   1.2788   1.3202   1.3505
     1.4208   1.4615   1.4847   1.5130   1.5497   1.5740   1.6034   1.6596
     1.7222   1.7515   1.8061   1.8489   1.9006   1.9455   1.9531   2.0264
     2.0700   2.1059   2.1109   2.1217   2.1816   2.2416   2.2614   2.3100
     2.3517   2.3776   2.4266   2.4667   2.5027   2.5707   2.6082   2.6539
     2.6873   2.7802   2.8342   2.8556   2.9241   2.9542   2.9941   3.0886
     3.1771   3.2755   3.2809   3.3330   3.4250   3.5219   3.5518   3.6135
     3.6464   3.6649   3.7536   3.7948   3.8796   3.9437   3.9948   4.0782
     4.1706   4.2126   4.2451   4.4009   4.4211   4.5142   4.5537   4.5654
     4.6431   4.6635   4.7516   4.8086   4.8697   4.9854   5.0924   5.2043
     5.2514   5.3273   5.3769   5.4295   5.5205   5.5994   5.6535   5.6815
     5.7597   5.7936   5.9357   6.0204   6.0499   6.1187   6.1592   6.1736
     6.3013   6.3918   6.4291   6.4836   6.5572   6.6301   6.6545   6.7378
     6.7853   6.8385   6.8798   6.9364   6.9806   7.0701   7.1114   7.1753
     7.2253   7.2738   7.3033   7.3886   7.4216

     the Fermi energy is     5.7493 ev

!    total energy              =   -1125.68051465 Ry
     Harris-Foulkes estimate   =   -1125.68051493 Ry
     estimated scf accuracy    <       0.00000034 Ry

     The total energy is the sum of the following terms:

     one-electron contribution =    -139.22337687 Ry
     hartree contribution      =     222.65174572 Ry
     xc contribution           =    -444.07039816 Ry
     ewald contribution        =    -765.03264007 Ry
     smearing contrib. (-TS)   =      -0.00584527 Ry

     convergence has been achieved in  15 iterations

     Forces acting on atoms (cartesian axes, Ry/au):

     atom    1 type  1   force =    -0.00126356   -0.01773867   -0.01734381
     atom    2 type  1   force =    -0.00819095   -0.02515455   -0.01604748
     atom    3 type  1   force =     0.00441685   -0.00331634    0.00369457
     atom    4 type  1   force =     0.05027912    0.03090154   -0.02470240
     atom    5 type  1   force =     0.01169441    0.01827750    0.02990973
     atom    6 type  1   force =    -0.01146593   -0.01440648   -0.00688840
     atom    7 type  1   force =     0.03619252   -0.01613010   -0.02781469
     atom    8 type  1   force =     0.00614082    0.01681903    0.00013676
     atom    9 type  1   force =    -0.03733427    0.01976461   -0.01544417
     atom   10 type  1   force =     0.01859276    0.00939095   -0.03089864
     atom   11 type  1   force =     0.00937953   -0.04663502    0.04776516
     atom   12 type  1   force =     0.00966047    0.01023217    0.01000215
     atom   13 type  1   force =    -0.00146615   -0.00914162    0.00678928
     atom   14 type  1   force =     0.02558414   -0.05172420   -0.00970919
     atom   15 type  1   force =    -0.01389967    0.00267478   -0.00495180
     atom   16 type  1   force =     0.01222328   -0.01317079   -0.00205329
     atom   17 type  2   force =     0.03379381    0.01722725    0.01280093
     atom   18 type  2   force =    -0.00203120   -0.00554162   -0.00413940
     atom   19 type  2   force =     0.00129357   -0.00311695    0.02498361
     atom   20 type  2   force =     0.00360453    0.03662185   -0.01544944
     atom   21 type  2   force =     0.00079761    0.01740631    0.00461180
     atom   22 type  2   force =    -0.01120539    0.01768882   -0.01067843
     atom   23 type  2   force =     0.01134189    0.00427620   -0.02583621
     atom   24 type  2   force =    -0.00174253    0.01757975    0.00124609
     atom   25 type  2   force =    -0.01577375    0.00617986   -0.01338587
     atom   26 type  2   force =    -0.01643930   -0.00864186   -0.00465233
     atom   27 type  2   force =    -0.01641896   -0.00512282   -0.02131814
     atom   28 type  2   force =    -0.01178788    0.00809603    0.00374275
     atom   29 type  2   force =    -0.01773806    0.01383181    0.01029403
     atom   30 type  2   force =     0.00289590   -0.02133860    0.01178670
     atom   31 type  2   force =    -0.02218528   -0.01917354    0.02480441
     atom   32 type  2   force =     0.01623596    0.01769316    0.00379998
     atom   33 type  2   force =    -0.00615995   -0.01049289   -0.00489204
     atom   34 type  2   force =    -0.00532654   -0.00286198   -0.00372357
     atom   35 type  2   force =    -0.02393430    0.00556708    0.00618124
     atom   36 type  2   force =     0.00090219    0.00235698   -0.01325215
     atom   37 type  2   force =    -0.02817932    0.00476920    0.01710419
     atom   38 type  2   force =     0.00547326   -0.01177625   -0.00424998
     atom   39 type  2   force =     0.01993153   -0.02989254    0.00739020
     atom   40 type  2   force =    -0.01663730   -0.03526469    0.01660724
     atom   41 type  2   force =    -0.02310012    0.01503047    0.00071402
     atom   42 type  2   force =     0.00946818    0.00603910    0.01558792
     atom   43 type  2   force =     0.00319474    0.03278590    0.01087167
     atom   44 type  2   force =     0.01614550   -0.00075530   -0.00244159
     atom   45 type  2   force =     0.01312511    0.00785455    0.01939901
     atom   46 type  2   force =    -0.01239867   -0.00454345    0.00954415
     atom   47 type  2   force =    -0.01130199    0.02688468   -0.01430314
     atom   48 type  2   force =    -0.00638662   -0.01000931   -0.00559146

     Total force =     0.208920     Total SCF correction =     0.001132
 
     init_run     :      8.40s CPU      8.56s WALL (       1 calls)
     electrons    :    231.55s CPU    235.52s WALL (       1 calls)
     forces       :      4.56s CPU      4.68s WALL (       1 calls)

     Called by init_run:
     wfcinit      :      6.33s CPU      6.42s WALL (       1 calls)
     potinit      :      0.57s CPU      0.58s WALL (       1 calls)
     hinit0       :      0.75s CPU      0.77s WALL (       1 calls)

     Called by electrons:
     c_bands      :    194.40s CPU    196.60s WALL (      15 calls)
     sum_band     :     29.18s CPU     30.38s WALL (      15 calls)
     v_of_rho     :      2.05s CPU      2.24s WALL (      16 calls)
     newd         :      4.54s CPU      4.87s WALL (      16 calls)
     mix_rho      :      1.55s CPU      1.62s WALL (      15 calls)

     Called by c_bands:
     init_us_2    :      2.94s CPU      2.95s WALL (     256 calls)
     cegterg      :    181.52s CPU    183.67s WALL (     120 calls)

     Called by sum_band:
     sum_band:bec :      0.35s CPU      0.35s WALL (     120 calls)
     addusdens    :      6.32s CPU      7.05s WALL (      15 calls)

     Called by *egterg:
     h_psi        :     95.76s CPU     97.27s WALL (     524 calls)
     s_psi        :     19.99s CPU     20.01s WALL (     524 calls)
     g_psi        :      0.35s CPU      0.35s WALL (     396 calls)
     cdiaghg      :     37.14s CPU     37.66s WALL (     516 calls)

     Called by h_psi:
     h_psi:pot    :     95.04s CPU     96.54s WALL (     524 calls)
     h_psi:calbec :     20.95s CPU     21.54s WALL (     524 calls)
     vloc_psi     :     53.97s CPU     54.86s WALL (     524 calls)
     add_vuspsi   :     20.10s CPU     20.14s WALL (     524 calls)

     General routines
     calbec       :     31.49s CPU     32.35s WALL (     676 calls)
     fft          :      2.18s CPU      2.36s WALL (     217 calls)
     ffts         :      0.55s CPU      0.61s WALL (     443 calls)
     fftw         :     60.02s CPU     61.02s WALL (  119326 calls)
     interpolate  :      0.12s CPU      0.12s WALL (      16 calls)
 
     Parallel routines
     fft_scatt_xy :      6.01s CPU      6.12s WALL (  119986 calls)
     fft_scatt_yz :     26.29s CPU     26.94s WALL (  119986 calls)
 
     PWSCF        :   4m 5.24s CPU   4m 9.59s WALL

 
   This run was terminated on:  23:11:38  24Dec2021            

=------------------------------------------------------------------------------=
   JOB DONE.
=------------------------------------------------------------------------------=

     Program PWSCF v.6.4 starts on 24Dec2021 at 23:11:39 

     This program is part of the open-source Quantum ESPRESSO suite
     for quantum simulation of materials; please cite
         "P. Giannozzi et al., J. Phys.:Condens. Matter 21 395502 (2009);
         "P. Giannozzi et al., J. Phys.:Condens. Matter 29 465901 (2017);
          URL http://www.quantum-espresso.org", 
     in publications or presentations arising from this work. More details at
     http://www.quantum-espresso.org/quote

     Parallel version (MPI), running on    40 processors

     MPI processes distributed on     1 nodes
     R & G space division:  proc/nbgrp/npool/nimage =      40
     Waiting for input...
     Reading input from standard input
Warning: card    &IONS ignored
Warning: card      ION_DYNAMICS = 'BFGS' ignored
Warning: card   / ignored
Warning: card    &CELL ignored
Warning: card      CELL_DYNAMICS = 'BFGS', ignored
Warning: card    / ignored

     Current dimensions of program PWSCF are:
     Max number of different atomic species (ntypx) = 10
     Max number of k-points (npk) =  40000
     Max angular momentum in pseudopotentials (lmaxx) =  3

     Subspace diagonalization in iterative solution of the eigenvalue problem:
     one sub-group per band group will be used
     scalapack distributed-memory algorithm (size of sub-group:  4*  4 procs)

 
     Parallelization info
     --------------------
     sticks:   dense  smooth     PW     G-vecs:    dense   smooth      PW
     Min         253     127     34                21375     7557    1072
     Max         254     128     35                21382     7561    1078
     Sum       10159    5081   1383               855213   302359   42983
 


     bravais-lattice index     =            0
     lattice parameter (alat)  =      18.2984  a.u.
     unit-cell volume          =    7414.7116 (a.u.)^3
     number of atoms/cell      =           48
     number of atomic types    =            2
     number of electrons       =       288.00
     number of Kohn-Sham states=          173
     kinetic-energy cutoff     =      45.0000  Ry
     charge density cutoff     =     360.0000  Ry
     convergence threshold     =      1.0E-06
     mixing beta               =       0.7000
     number of iterations used =            8  local-TF  mixing
     Exchange-correlation      = SLA PW GGX GGC ( 1  4  2  2 0 0)

     celldm(1)=  18.298380  celldm(2)=   0.000000  celldm(3)=   0.000000
     celldm(4)=   0.000000  celldm(5)=   0.000000  celldm(6)=   0.000000

     crystal axes: (cart. coord. in units of alat)
               a(1) = (   1.000000   0.000000   0.000000 )  
               a(2) = (  -0.067439   1.059555   0.000000 )  
               a(3) = (  -0.077837  -0.011955   1.142176 )  

     reciprocal axes: (cart. coord. in units 2 pi/alat)
               b(1) = (  1.000000  0.063648  0.068814 )  
               b(2) = (  0.000000  0.943793  0.009878 )  
               b(3) = (  0.000000  0.000000  0.875522 )  


     PseudoPot. # 1 for Mo read from file:
     ~/pseudo/Mo.pw91-n-van.UPF
     MD5 check sum: Not computed, couldn't open file
     Pseudo is Ultrasoft + core correction, Zval =  6.0
     Generated by new atomic code, or converted to UPF format
     Using radial grid of  965 points,  3 beta functions with: 
                l(1) =   1
                l(2) =   2
                l(3) =   2
     Q(r) pseudized with  8 coefficients,  rinner =    1.000   1.000   1.000
                                                       1.200   1.200

     PseudoPot. # 2 for S  read from file:
     ~/pseudo/S.pw91-van_ak.UPF
     MD5 check sum: Not computed, couldn't open file
     Pseudo is Ultrasoft, Zval =  6.0
     Generated by new atomic code, or converted to UPF format
     Using radial grid of  811 points,  6 beta functions with: 
                l(1) =   0
                l(2) =   0
                l(3) =   1
                l(4) =   1
                l(5) =   2
                l(6) =   2
     Q(r) pseudized with  8 coefficients,  rinner =    1.100   1.100   1.100
                                                       1.100   1.100

     atomic species   valence    mass     pseudopotential
        Mo             6.00    95.50000     Mo( 1.00)
        S              6.00    32.06500     S ( 1.00)

     No symmetry found



   Cartesian axes

     site n.     atom                  positions (alat units)
         1           Mo  tau(   1) = (   0.0220291   0.7124903   0.7796612  )
         2           Mo  tau(   2) = (   0.2317957   0.6998475   1.0300777  )
         3           Mo  tau(   3) = (   0.0027518   0.9186795   0.9994849  )
         4           Mo  tau(   4) = (   0.2155634   0.9223949   0.8092643  )
         5           Mo  tau(   5) = (   0.6729689   0.0343380   0.7017960  )
         6           Mo  tau(   6) = (   0.8009002   0.1763510   0.9884201  )
         7           Mo  tau(   7) = (   0.4558682   0.4592350   1.0391717  )
         8           Mo  tau(   8) = (   0.7113938   0.3507195   0.7682988  )
         9           Mo  tau(   9) = (   0.0755654   0.1661641   0.1169361  )
        10           Mo  tau(  10) = (   0.5204242   0.2453347   0.5832847  )
        11           Mo  tau(  11) = (   0.2635205   0.2040935   0.3223619  )
        12           Mo  tau(  12) = (   0.3334208   0.4544235   0.0991304  )
        13           Mo  tau(  13) = (   0.5547321   0.6685683   0.1176082  )
        14           Mo  tau(  14) = (   0.7801499   0.6980027   0.5295320  )
        15           Mo  tau(  15) = (   0.6049687   0.8804777   0.3865563  )
        16           Mo  tau(  16) = (   0.7980979   0.8732793   0.1476403  )
        17           S   tau(  17) = (  -0.0279312   0.6705160   1.0179628  )
        18           S   tau(  18) = (   0.1188320   0.3979871   0.2136428  )
        19           S   tau(  19) = (   0.2649196   0.6909439   0.7654540  )
        20           S   tau(  20) = (   0.3542398   0.8522695   0.4485922  )
        21           S   tau(  21) = (   0.0382142   0.1237812   1.0100179  )
        22           S   tau(  22) = (   0.2157332   0.4359066   1.0050945  )
        23           S   tau(  23) = (   0.0379363   0.1374195   0.3713032  )
        24           S   tau(  24) = (   0.3369397   0.3657401   0.4820548  )
        25           S   tau(  25) = (   0.5877113   1.0409225   0.9528206  )
        26           S   tau(  26) = (   0.5631344   0.9290713   0.1456590  )
        27           S   tau(  27) = (   0.8759171   0.1706350   0.7410868  )
        28           S   tau(  28) = (   0.8040050   0.5820209   0.7517019  )
        29           S   tau(  29) = (   0.4954986   0.6920861   1.0120597  )
        30           S   tau(  30) = (   0.7405679   0.9073938   1.0324536  )
        31           S   tau(  31) = (   0.4208388   0.0384136   0.6940582  )
        32           S   tau(  32) = (   0.8527042   0.8933918   0.3882625  )
        33           S   tau(  33) = (   0.2729019   1.0274312   0.3524523  )
        34           S   tau(  34) = (  -0.0168446   0.9500355   0.7522584  )
        35           S   tau(  35) = (   0.3406600   0.1897218   0.0930006  )
        36           S   tau(  36) = (   0.3043314   0.6937037   0.1534352  )
        37           S   tau(  37) = (   0.0267120   0.6525051   0.5302890  )
        38           S   tau(  38) = (   0.6407800   0.8570054   0.6521282  )
        39           S   tau(  39) = (   0.0301635   0.9734529   0.1099141  )
        40           S   tau(  40) = (   0.2466568   0.9669698   1.0416917  )
        41           S   tau(  41) = (   0.5976940   0.6300786   0.3793638  )
        42           S   tau(  42) = (   0.4679709   0.3487363   0.8056921  )
        43           S   tau(  43) = (   0.8112187   0.6413071   0.1192692  )
        44           S   tau(  44) = (   0.8306493   0.1628464   0.0919332  )
        45           S   tau(  45) = (   0.6517216   0.0713711   0.4486027  )
        46           S   tau(  46) = (   0.7204744   0.3827098   0.5171408  )
        47           S   tau(  47) = (   0.5719962   0.4103551   0.1313003  )
        48           S   tau(  48) = (   0.7171594   0.4059397   1.0148994  )

     number of k points=     8  Marzari-Vanderbilt smearing, width (Ry)=  0.0200
                       cart. coord. in units 2pi/alat
        k(    1) = (   0.0000000   0.0000000   0.0000000), wk =   0.2500000
        k(    2) = (   0.0000000   0.0000000  -0.4377610), wk =   0.2500000
        k(    3) = (   0.0000000  -0.4718963  -0.0049392), wk =   0.2500000
        k(    4) = (   0.0000000  -0.4718963  -0.4427002), wk =   0.2500000
        k(    5) = (  -0.5000000  -0.0318241  -0.0344072), wk =   0.2500000
        k(    6) = (  -0.5000000  -0.0318241  -0.4721682), wk =   0.2500000
        k(    7) = (  -0.5000000  -0.5037204  -0.0393464), wk =   0.2500000
        k(    8) = (  -0.5000000  -0.5037204  -0.4771074), wk =   0.2500000

     Dense  grid:   855213 G-vectors     FFT dimensions: ( 120, 120, 128)

     Smooth grid:   302359 G-vectors     FFT dimensions: (  80,  90,  90)

     Estimated max dynamical RAM per process >     163.34 MB

     Estimated total dynamical RAM >       6.38 GB

     Initial potential from superposition of free atoms

     starting charge  287.97477, renormalised to  288.00000
     Starting wfcs are  272 randomized atomic wfcs

     total cpu time spent up to now is        9.3 secs

     Self-consistent Calculation

     iteration #  1     ecut=    45.00 Ry     beta= 0.70
     Davidson diagonalization with overlap
     ethr =  1.00E-02,  avg # of iterations =  2.0

     total cpu time spent up to now is       26.1 secs

     total energy              =   -1123.74671450 Ry
     Harris-Foulkes estimate   =   -1127.55549558 Ry
     estimated scf accuracy    <       9.99577083 Ry

     iteration #  2     ecut=    45.00 Ry     beta= 0.70
     Davidson diagonalization with overlap
     ethr =  3.47E-03,  avg # of iterations =  2.0

     total cpu time spent up to now is       42.1 secs

     total energy              =   -1125.26582149 Ry
     Harris-Foulkes estimate   =   -1125.99135853 Ry
     estimated scf accuracy    <       3.71821416 Ry

     iteration #  3     ecut=    45.00 Ry     beta= 0.70
     Davidson diagonalization with overlap
     ethr =  1.29E-03,  avg # of iterations =  1.6

     total cpu time spent up to now is       54.6 secs

     total energy              =   -1125.61137366 Ry
     Harris-Foulkes estimate   =   -1125.74109284 Ry
     estimated scf accuracy    <       0.89877102 Ry

     iteration #  4     ecut=    45.00 Ry     beta= 0.70
     Davidson diagonalization with overlap
     ethr =  3.12E-04,  avg # of iterations =  2.0

     total cpu time spent up to now is       67.3 secs

     total energy              =   -1125.65317577 Ry
     Harris-Foulkes estimate   =   -1125.68634454 Ry
     estimated scf accuracy    <       0.12452486 Ry

     iteration #  5     ecut=    45.00 Ry     beta= 0.70
     Davidson diagonalization with overlap
     ethr =  4.32E-05,  avg # of iterations =  8.0

     total cpu time spent up to now is       93.3 secs

     total energy              =   -1125.67364469 Ry
     Harris-Foulkes estimate   =   -1125.68698244 Ry
     estimated scf accuracy    <       0.07504026 Ry

     iteration #  6     ecut=    45.00 Ry     beta= 0.70
     Davidson diagonalization with overlap
     ethr =  2.61E-05,  avg # of iterations =  2.0

     total cpu time spent up to now is      106.1 secs

     total energy              =   -1125.67794306 Ry
     Harris-Foulkes estimate   =   -1125.68150402 Ry
     estimated scf accuracy    <       0.02645887 Ry

     iteration #  7     ecut=    45.00 Ry     beta= 0.70
     Davidson diagonalization with overlap
     ethr =  9.19E-06,  avg # of iterations =  3.1

     total cpu time spent up to now is      119.8 secs

     total energy              =   -1125.67985874 Ry
     Harris-Foulkes estimate   =   -1125.68038289 Ry
     estimated scf accuracy    <       0.00448882 Ry

     iteration #  8     ecut=    45.00 Ry     beta= 0.70
     Davidson diagonalization with overlap
     ethr =  1.56E-06,  avg # of iterations =  9.2

     total cpu time spent up to now is      143.7 secs

     total energy              =   -1125.68031393 Ry
     Harris-Foulkes estimate   =   -1125.68061527 Ry
     estimated scf accuracy    <       0.00176542 Ry

     iteration #  9     ecut=    45.00 Ry     beta= 0.70
     Davidson diagonalization with overlap
     ethr =  6.13E-07,  avg # of iterations =  2.4

     total cpu time spent up to now is      156.7 secs

     total energy              =   -1125.68043908 Ry
     Harris-Foulkes estimate   =   -1125.68052646 Ry
     estimated scf accuracy    <       0.00072068 Ry

     iteration # 10     ecut=    45.00 Ry     beta= 0.70
     Davidson diagonalization with overlap
     ethr =  2.50E-07,  avg # of iterations =  3.1

     total cpu time spent up to now is      170.6 secs

     total energy              =   -1125.68046189 Ry
     Harris-Foulkes estimate   =   -1125.68053729 Ry
     estimated scf accuracy    <       0.00039139 Ry

     iteration # 11     ecut=    45.00 Ry     beta= 0.70
     Davidson diagonalization with overlap
     ethr =  1.36E-07,  avg # of iterations =  2.1

     total cpu time spent up to now is      183.5 secs

     total energy              =   -1125.68050575 Ry
     Harris-Foulkes estimate   =   -1125.68051194 Ry
     estimated scf accuracy    <       0.00006929 Ry

     iteration # 12     ecut=    45.00 Ry     beta= 0.70
     Davidson diagonalization with overlap
     ethr =  2.41E-08,  avg # of iterations =  2.8

     total cpu time spent up to now is      197.5 secs

     total energy              =   -1125.68051150 Ry
     Harris-Foulkes estimate   =   -1125.68051447 Ry
     estimated scf accuracy    <       0.00001675 Ry

     iteration # 13     ecut=    45.00 Ry     beta= 0.70
     Davidson diagonalization with overlap
     ethr =  5.82E-09,  avg # of iterations =  3.5

     total cpu time spent up to now is      213.5 secs

     total energy              =   -1125.68051435 Ry
     Harris-Foulkes estimate   =   -1125.68051502 Ry
     estimated scf accuracy    <       0.00000754 Ry

     iteration # 14     ecut=    45.00 Ry     beta= 0.70
     Davidson diagonalization with overlap
     ethr =  2.62E-09,  avg # of iterations =  1.8

     total cpu time spent up to now is      225.9 secs

     total energy              =   -1125.68051471 Ry
     Harris-Foulkes estimate   =   -1125.68051493 Ry
     estimated scf accuracy    <       0.00000167 Ry

     iteration # 15     ecut=    45.00 Ry     beta= 0.70
     Davidson diagonalization with overlap
     ethr =  5.80E-10,  avg # of iterations =  3.9

     total cpu time spent up to now is      240.6 secs

     End of self-consistent calculation

          k = 0.0000 0.0000 0.0000 ( 37849 PWs)   bands (ev):

    -9.6319  -8.8634  -8.2444  -7.8671  -7.8213  -7.7754  -7.6908  -7.5350
    -7.4848  -7.4524  -7.4049  -7.3403  -7.3052  -7.2834  -7.2082  -7.2043
    -7.1406  -7.1133  -7.0381  -6.9718  -6.9172  -6.8594  -6.8002  -6.7503
    -6.7281  -6.6571  -6.5392  -6.3880  -6.2354  -6.0873  -5.9603  -5.0859
    -0.5289  -0.3201  -0.0827  -0.0622   0.0069   0.1328   0.1663   0.2649
     0.2774   0.3505   0.4638   0.5139   0.5431   0.5925   0.6443   0.6553
     0.7319   0.8140   0.8309   0.8534   0.9545   0.9922   1.0225   1.0679
     1.0965   1.1287   1.1821   1.1904   1.2459   1.2995   1.3298   1.3488
     1.4278   1.4663   1.5161   1.5570   1.5724   1.6500   1.6880   1.7227
     1.7367   1.7840   1.8121   1.8418   1.8811   1.9388   1.9923   2.0074
     2.0372   2.0720   2.0997   2.1158   2.1785   2.1901   2.2357   2.2750
     2.3374   2.3743   2.4140   2.4460   2.5382   2.5748   2.6180   2.6782
     2.6998   2.7677   2.7780   2.8411   2.8965   2.9503   2.9757   3.0600
     3.1679   3.1820   3.2538   3.3055   3.3972   3.4108   3.5450   3.5646
     3.6058   3.6652   3.7201   3.8537   3.8846   3.9258   3.9957   4.0476
     4.1153   4.2059   4.2286   4.3047   4.3750   4.4440   4.5082   4.6418
     4.6558   4.7585   4.7864   4.8625   4.9531   4.9741   5.0381   5.1439
     5.2225   5.2617   5.3536   5.3663   5.4882   5.5764   5.6139   5.7453
     5.7723   5.8553   5.9483   6.0112   6.1321   6.2305   6.2504   6.3057
     6.3462   6.4180   6.4762   6.4947   6.5956   6.6270   6.6835   6.7353
     6.7923   6.8711   6.8979   6.9425   6.9902   7.0255   7.0915   7.1293
     7.2010   7.2402   7.2951   7.4074   7.4491

          k = 0.0000 0.0000-0.4378 ( 37784 PWs)   bands (ev):

    -9.6298  -8.8630  -8.2242  -7.9889  -7.8036  -7.7074  -7.6604  -7.5471
    -7.4747  -7.4743  -7.3983  -7.3809  -7.2981  -7.2790  -7.2492  -7.1337
    -7.1168  -7.1020  -7.0428  -6.9595  -6.9346  -6.8569  -6.8053  -6.7747
    -6.7237  -6.6648  -6.5341  -6.3913  -6.2305  -6.0852  -5.9611  -5.0840
    -0.5444  -0.2658  -0.1476  -0.0368   0.0425   0.1429   0.1649   0.2322
     0.2745   0.3550   0.4332   0.4765   0.5190   0.5919   0.6466   0.6871
     0.7503   0.7554   0.8125   0.8630   0.8909   0.9513   1.0082   1.0292
     1.0941   1.1260   1.1417   1.1598   1.2565   1.2886   1.3479   1.4042
     1.4254   1.4885   1.4917   1.5386   1.5885   1.6093   1.6890   1.7076
     1.7295   1.8239   1.8543   1.8830   1.9397   1.9802   2.0054   2.0388
     2.0923   2.1267   2.1467   2.1766   2.2253   2.2299   2.2660   2.2913
     2.3509   2.3815   2.4425   2.4626   2.4941   2.5470   2.5843   2.6175
     2.6790   2.6800   2.7972   2.8104   2.8899   2.9803   3.0643   3.0820
     3.1734   3.2080   3.2624   3.3095   3.3312   3.4562   3.5017   3.5456
     3.5916   3.6886   3.7474   3.7843   3.8520   3.8882   3.9707   4.0064
     4.1153   4.1658   4.2852   4.3267   4.4202   4.4853   4.5781   4.5971
     4.6942   4.7551   4.8055   4.8490   4.8767   4.9779   4.9921   5.0398
     5.1207   5.2424   5.3655   5.4879   5.5297   5.5470   5.6607   5.7532
     5.7738   5.8094   5.8652   6.0072   6.0409   6.1874   6.3159   6.3390
     6.3678   6.4135   6.5013   6.5252   6.5670   6.5865   6.6190   6.7160
     6.7631   6.8609   6.9291   6.9633   7.0122   7.0317   7.0966   7.1528
     7.2338   7.2524   7.3342   7.3939   7.4439

          k = 0.0000-0.4719-0.0049 ( 37786 PWs)   bands (ev):

    -9.6299  -8.8579  -8.2167  -7.9921  -7.7841  -7.7074  -7.6540  -7.6048
    -7.5170  -7.4123  -7.3903  -7.3677  -7.3332  -7.2791  -7.2587  -7.1949
    -7.1104  -7.0562  -7.0245  -6.9896  -6.9174  -6.8588  -6.8172  -6.7674
    -6.7060  -6.6506  -6.5380  -6.3741  -6.2310  -6.0895  -5.9597  -5.0865
    -0.5292  -0.2350  -0.0838  -0.0341   0.0794   0.1266   0.1850   0.2326
     0.3140   0.3670   0.3809   0.4183   0.5214   0.5313   0.5993   0.6303
     0.7410   0.7684   0.8151   0.8822   0.9117   0.9719   1.0305   1.0725
     1.0855   1.1471   1.1699   1.2050   1.2959   1.3089   1.3337   1.3640
     1.4207   1.4452   1.4678   1.5556   1.5867   1.6188   1.6740   1.7259
     1.7444   1.7624   1.8028   1.8472   1.9195   1.9450   1.9873   2.0096
     2.0319   2.0882   2.1185   2.1390   2.1736   2.1973   2.2372   2.2529
     2.2921   2.3535   2.4142   2.4191   2.4807   2.5655   2.6099   2.6833
     2.7103   2.7923   2.8471   2.8964   2.9345   2.9624   3.0321   3.0490
     3.1427   3.2622   3.2825   3.3731   3.4079   3.4932   3.5113   3.5454
     3.5969   3.6344   3.7109   3.7938   3.9003   3.9784   4.0403   4.1614
     4.1708   4.2211   4.2541   4.3277   4.4043   4.4449   4.4943   4.5318
     4.6293   4.6472   4.7527   4.8537   4.9221   4.9949   5.0823   5.1060
     5.1458   5.2486   5.3635   5.4040   5.4847   5.6356   5.6869   5.7303
     5.7927   5.8212   5.8835   5.9248   6.0807   6.1224   6.1995   6.2444
     6.2733   6.3974   6.4688   6.5064   6.5638   6.6288   6.6831   6.7587
     6.7931   6.8471   6.8599   6.9379   7.0411   7.0858   7.1566   7.2359
     7.2876   7.3157   7.3657   7.3977   7.4710

          k = 0.0000-0.4719-0.4427 ( 37802 PWs)   bands (ev):

    -9.6280  -8.8587  -8.1850  -7.9870  -7.8899  -7.7602  -7.6209  -7.5900
    -7.4482  -7.4244  -7.3907  -7.3710  -7.3222  -7.2609  -7.2325  -7.1795
    -7.1361  -7.0558  -7.0269  -6.9907  -6.9280  -6.8477  -6.8120  -6.7868
    -6.7148  -6.6508  -6.5323  -6.3814  -6.2282  -6.0855  -5.9605  -5.0857
    -0.5417  -0.1838  -0.1454   0.0358   0.0525   0.0879   0.2022   0.2413
     0.2931   0.3685   0.3771   0.4003   0.4267   0.5541   0.6635   0.6712
     0.7405   0.7654   0.7941   0.8575   0.8993   0.9699   1.0145   1.0426
     1.0849   1.1345   1.1450   1.1612   1.2276   1.2737   1.3388   1.3829
     1.4184   1.4397   1.5023   1.5320   1.5543   1.6255   1.6592   1.7000
     1.7648   1.7898   1.8389   1.8955   1.9272   1.9744   2.0122   2.0414
     2.0639   2.1205   2.1287   2.1780   2.2052   2.2495   2.2877   2.3133
     2.3430   2.3631   2.4111   2.4408   2.4677   2.5637   2.6215   2.6461
     2.7031   2.7550   2.8144   2.8517   2.9150   2.9807   3.0704   3.1363
     3.1985   3.2503   3.2970   3.3253   3.3561   3.4046   3.4564   3.5914
     3.6517   3.6721   3.7443   3.7721   3.8760   3.9351   3.9435   4.0828
     4.1337   4.1740   4.2659   4.3566   4.4091   4.4907   4.5368   4.5852
     4.6478   4.7554   4.7770   4.7976   4.8829   4.9408   5.0197   5.1000
     5.1291   5.2247   5.3213   5.4736   5.5258   5.5650   5.6772   5.7284
     5.7872   5.8410   5.9019   5.9636   6.0155   6.1457   6.2356   6.2582
     6.2780   6.3985   6.4244   6.5043   6.5529   6.5897   6.6914   6.7141
     6.7810   6.8597   6.8866   6.9984   7.0769   7.0930   7.1417   7.2105
     7.2327   7.2990   7.3242   7.3817   7.4594

          k =-0.5000-0.0318-0.0344 ( 37774 PWs)   bands (ev):

    -9.6262  -8.8580  -8.1719  -8.0646  -7.7645  -7.7220  -7.6425  -7.5928
    -7.5208  -7.4892  -7.4062  -7.3568  -7.2873  -7.2393  -7.2259  -7.1746
    -7.1353  -7.0825  -7.0357  -6.9751  -6.9483  -6.8609  -6.8140  -6.7528
    -6.7086  -6.6532  -6.5319  -6.3866  -6.2331  -6.0857  -5.9462  -5.0830
    -0.5324  -0.0976  -0.0092   0.0071   0.0447   0.1228   0.1841   0.2257
     0.2772   0.3453   0.3626   0.4129   0.4987   0.5901   0.6102   0.6632
     0.7608   0.7960   0.8255   0.8479   0.9102   0.9580   0.9797   1.0244
     1.0515   1.1190   1.1747   1.1979   1.2566   1.2826   1.3104   1.3477
     1.3836   1.4700   1.4913   1.5568   1.5834   1.6314   1.6659   1.6887
     1.7681   1.7906   1.8315   1.8570   1.8812   1.9340   1.9761   1.9941
     2.0204   2.0536   2.1034   2.1532   2.1883   2.2155   2.2396   2.2797
     2.3346   2.3940   2.4123   2.4449   2.5099   2.5483   2.5771   2.6114
     2.7151   2.7273   2.7651   2.8449   2.9453   2.9775   3.0528   3.0966
     3.1165   3.2282   3.2685   3.3299   3.3519   3.4259   3.4770   3.5431
     3.5886   3.7331   3.7354   3.8501   3.8568   3.9615   4.0061   4.0871
     4.1296   4.1460   4.2340   4.3255   4.3997   4.4751   4.5783   4.6179
     4.6869   4.7761   4.8039   4.8305   4.9229   5.0474   5.0926   5.2041
     5.2302   5.2491   5.3932   5.4543   5.5467   5.5530   5.6589   5.7147
     5.7333   5.8519   5.8768   5.9838   6.1092   6.1580   6.1833   6.2556
     6.3744   6.4329   6.4731   6.5241   6.5663   6.6019   6.6670   6.6851
     6.7493   6.8297   6.9675   7.0011   7.0519   7.1007   7.1302   7.1480
     7.2281   7.2315   7.3346   7.3522   7.4007

          k =-0.5000-0.0318-0.4722 ( 37776 PWs)   bands (ev):

    -9.6246  -8.8562  -8.1847  -7.9645  -7.9309  -7.7497  -7.6123  -7.5803
    -7.5232  -7.4656  -7.3614  -7.3248  -7.2825  -7.2595  -7.2290  -7.1948
    -7.1315  -7.0996  -7.0124  -6.9706  -6.9436  -6.8482  -6.8114  -6.7717
    -6.7243  -6.6494  -6.5301  -6.3894  -6.2282  -6.0840  -5.9498  -5.0825
    -0.5252  -0.1308  -0.0451   0.0371   0.0637   0.1048   0.1687   0.2332
     0.2811   0.3507   0.3647   0.4757   0.5117   0.5451   0.6153   0.6350
     0.7098   0.7394   0.7804   0.8480   0.9163   0.9626   0.9756   1.0168
     1.0693   1.1087   1.1331   1.2005   1.2383   1.2987   1.3231   1.3600
     1.4280   1.4693   1.4794   1.5214   1.6063   1.6198   1.6820   1.6900
     1.7333   1.7773   1.8289   1.8754   1.8932   1.9390   1.9843   2.0046
     2.0647   2.1293   2.1467   2.1745   2.1985   2.2273   2.2701   2.2973
     2.3436   2.3914   2.4228   2.4747   2.5410   2.5544   2.6234   2.6498
     2.7234   2.7422   2.7708   2.8508   2.8788   2.9398   2.9790   3.0347
     3.0659   3.1941   3.2876   3.3558   3.4074   3.5059   3.5379   3.6030
     3.6350   3.6505   3.6851   3.7740   3.8217   3.9469   4.0383   4.0615
     4.1575   4.2084   4.2224   4.3124   4.3576   4.4059   4.5594   4.6231
     4.6738   4.7420   4.8212   4.8501   4.9559   4.9952   5.1102   5.1604
     5.2782   5.2937   5.4027   5.5089   5.5187   5.6142   5.6247   5.6801
     5.7447   5.8362   5.8637   5.9319   6.0614   6.0841   6.2119   6.2765
     6.2992   6.3898   6.4350   6.4966   6.5791   6.6067   6.6678   6.7499
     6.8403   6.8895   6.9435   6.9606   7.0049   7.0225   7.1352   7.1809
     7.2031   7.2702   7.3168   7.3824   7.4340

          k =-0.5000-0.5037-0.0393 ( 37778 PWs)   bands (ev):

    -9.6247  -8.8533  -8.1505  -8.0192  -7.8954  -7.7615  -7.6367  -7.5573
    -7.5046  -7.4344  -7.3894  -7.3497  -7.2997  -7.2826  -7.2480  -7.2070
    -7.1174  -7.0627  -7.0515  -6.9888  -6.9117  -6.8623  -6.7933  -6.7640
    -6.7154  -6.6442  -6.5204  -6.3693  -6.2292  -6.0900  -5.9476  -5.0846
    -0.5340  -0.1315  -0.0718   0.0216   0.0681   0.1632   0.2238   0.2748
     0.2838   0.3333   0.3771   0.4422   0.5245   0.5623   0.6596   0.7087
     0.7276   0.7651   0.8450   0.8626   0.8942   0.9416   0.9530   1.0044
     1.0285   1.0808   1.1163   1.1469   1.2245   1.2560   1.2721   1.3518
     1.4170   1.4478   1.4982   1.5245   1.5957   1.6157   1.6679   1.7345
     1.7510   1.7790   1.8206   1.8404   1.8582   1.9436   1.9655   1.9965
     2.0362   2.0749   2.1176   2.1408   2.1847   2.2038   2.2350   2.2856
     2.2905   2.4050   2.4084   2.4315   2.4751   2.5101   2.5828   2.6192
     2.6913   2.7174   2.8489   2.8776   2.8902   2.9760   3.0601   3.0855
     3.1772   3.2415   3.3065   3.3266   3.4132   3.5048   3.5311   3.5472
     3.6606   3.7122   3.8028   3.8794   3.8960   3.9615   4.0227   4.0695
     4.1969   4.2318   4.2941   4.3230   4.3579   4.4062   4.5159   4.5940
     4.6716   4.7271   4.8200   4.8340   4.9679   4.9839   5.0869   5.1868
     5.2430   5.2792   5.3402   5.3551   5.5371   5.5648   5.6944   5.7349
     5.7678   5.8132   5.8964   5.9688   6.0575   6.1051   6.2204   6.2299
     6.3222   6.3555   6.4193   6.5174   6.5837   6.6239   6.6550   6.6832
     6.7585   6.7918   6.8739   6.9318   6.9973   7.0607   7.1721   7.2036
     7.2421   7.3098   7.3600   7.3959   7.4750

          k =-0.5000-0.5037-0.4771 ( 37810 PWs)   bands (ev):

    -9.6232  -8.8525  -8.1486  -7.9835  -7.8618  -7.8297  -7.6917  -7.6155
    -7.4921  -7.4581  -7.3793  -7.3594  -7.3002  -7.2302  -7.1984  -7.1446
    -7.1044  -7.0549  -7.0425  -7.0165  -6.9290  -6.8456  -6.8138  -6.7717
    -6.7162  -6.6459  -6.5242  -6.3803  -6.2303  -6.0848  -5.9491  -5.0846
    -0.5278  -0.1123  -0.0462  -0.0009   0.0283   0.1248   0.1679   0.2426
     0.3191   0.3559   0.3715   0.4448   0.5390   0.5764   0.6217   0.6343
     0.7419   0.7538   0.8391   0.8418   0.9214   0.9603   0.9702   1.0479
     1.0656   1.0851   1.1237   1.1501   1.2326   1.2788   1.3202   1.3505
     1.4208   1.4615   1.4847   1.5130   1.5497   1.5740   1.6034   1.6596
     1.7222   1.7515   1.8061   1.8489   1.9006   1.9455   1.9531   2.0264
     2.0700   2.1059   2.1109   2.1217   2.1816   2.2416   2.2614   2.3100
     2.3517   2.3776   2.4266   2.4667   2.5027   2.5707   2.6082   2.6539
     2.6873   2.7802   2.8342   2.8556   2.9241   2.9542   2.9941   3.0886
     3.1771   3.2755   3.2809   3.3330   3.4250   3.5219   3.5518   3.6135
     3.6464   3.6649   3.7536   3.7948   3.8796   3.9437   3.9948   4.0782
     4.1706   4.2126   4.2451   4.4009   4.4211   4.5142   4.5537   4.5654
     4.6431   4.6635   4.7516   4.8086   4.8697   4.9854   5.0924   5.2043
     5.2514   5.3273   5.3769   5.4295   5.5205   5.5994   5.6535   5.6815
     5.7597   5.7936   5.9357   6.0204   6.0499   6.1187   6.1592   6.1736
     6.3013   6.3918   6.4291   6.4836   6.5572   6.6301   6.6545   6.7378
     6.7853   6.8385   6.8798   6.9364   6.9806   7.0701   7.1114   7.1753
     7.2253   7.2738   7.3033   7.3886   7.4216

     the Fermi energy is     5.7493 ev

!    total energy              =   -1125.68051465 Ry
     Harris-Foulkes estimate   =   -1125.68051493 Ry
     estimated scf accuracy    <       0.00000034 Ry

     The total energy is the sum of the following terms:

     one-electron contribution =    -139.22337687 Ry
     hartree contribution      =     222.65174572 Ry
     xc contribution           =    -444.07039816 Ry
     ewald contribution        =    -765.03264007 Ry
     smearing contrib. (-TS)   =      -0.00584527 Ry

     convergence has been achieved in  15 iterations

     Forces acting on atoms (cartesian axes, Ry/au):

     atom    1 type  1   force =    -0.00126356   -0.01773867   -0.01734381
     atom    2 type  1   force =    -0.00819095   -0.02515455   -0.01604748
     atom    3 type  1   force =     0.00441685   -0.00331634    0.00369457
     atom    4 type  1   force =     0.05027912    0.03090154   -0.02470240
     atom    5 type  1   force =     0.01169441    0.01827750    0.02990973
     atom    6 type  1   force =    -0.01146593   -0.01440648   -0.00688840
     atom    7 type  1   force =     0.03619252   -0.01613010   -0.02781469
     atom    8 type  1   force =     0.00614082    0.01681903    0.00013676
     atom    9 type  1   force =    -0.03733427    0.01976461   -0.01544417
     atom   10 type  1   force =     0.01859276    0.00939095   -0.03089864
     atom   11 type  1   force =     0.00937953   -0.04663502    0.04776516
     atom   12 type  1   force =     0.00966047    0.01023217    0.01000215
     atom   13 type  1   force =    -0.00146615   -0.00914162    0.00678928
     atom   14 type  1   force =     0.02558414   -0.05172420   -0.00970919
     atom   15 type  1   force =    -0.01389967    0.00267478   -0.00495180
     atom   16 type  1   force =     0.01222328   -0.01317079   -0.00205329
     atom   17 type  2   force =     0.03379381    0.01722725    0.01280093
     atom   18 type  2   force =    -0.00203120   -0.00554162   -0.00413940
     atom   19 type  2   force =     0.00129357   -0.00311695    0.02498361
     atom   20 type  2   force =     0.00360453    0.03662185   -0.01544944
     atom   21 type  2   force =     0.00079761    0.01740631    0.00461180
     atom   22 type  2   force =    -0.01120539    0.01768882   -0.01067843
     atom   23 type  2   force =     0.01134189    0.00427620   -0.02583621
     atom   24 type  2   force =    -0.00174253    0.01757975    0.00124609
     atom   25 type  2   force =    -0.01577375    0.00617986   -0.01338587
     atom   26 type  2   force =    -0.01643930   -0.00864186   -0.00465233
     atom   27 type  2   force =    -0.01641896   -0.00512282   -0.02131814
     atom   28 type  2   force =    -0.01178788    0.00809603    0.00374275
     atom   29 type  2   force =    -0.01773806    0.01383181    0.01029403
     atom   30 type  2   force =     0.00289590   -0.02133860    0.01178670
     atom   31 type  2   force =    -0.02218528   -0.01917354    0.02480441
     atom   32 type  2   force =     0.01623596    0.01769316    0.00379998
     atom   33 type  2   force =    -0.00615995   -0.01049289   -0.00489204
     atom   34 type  2   force =    -0.00532654   -0.00286198   -0.00372357
     atom   35 type  2   force =    -0.02393430    0.00556708    0.00618124
     atom   36 type  2   force =     0.00090219    0.00235698   -0.01325215
     atom   37 type  2   force =    -0.02817932    0.00476920    0.01710419
     atom   38 type  2   force =     0.00547326   -0.01177625   -0.00424998
     atom   39 type  2   force =     0.01993153   -0.02989254    0.00739020
     atom   40 type  2   force =    -0.01663730   -0.03526469    0.01660724
     atom   41 type  2   force =    -0.02310012    0.01503047    0.00071402
     atom   42 type  2   force =     0.00946818    0.00603910    0.01558792
     atom   43 type  2   force =     0.00319474    0.03278590    0.01087167
     atom   44 type  2   force =     0.01614550   -0.00075530   -0.00244159
     atom   45 type  2   force =     0.01312511    0.00785455    0.01939901
     atom   46 type  2   force =    -0.01239867   -0.00454345    0.00954415
     atom   47 type  2   force =    -0.01130199    0.02688468   -0.01430314
     atom   48 type  2   force =    -0.00638662   -0.01000931   -0.00559146

     Total force =     0.208920     Total SCF correction =     0.001132
 
     init_run     :      8.37s CPU      8.57s WALL (       1 calls)
     electrons    :    227.63s CPU    231.35s WALL (       1 calls)
     forces       :      4.60s CPU      4.71s WALL (       1 calls)

     Called by init_run:
     wfcinit      :      6.30s CPU      6.43s WALL (       1 calls)
     potinit      :      0.57s CPU      0.58s WALL (       1 calls)
     hinit0       :      0.75s CPU      0.76s WALL (       1 calls)

     Called by electrons:
     c_bands      :    192.21s CPU    194.32s WALL (      15 calls)
     sum_band     :     28.72s CPU     29.88s WALL (      15 calls)
     v_of_rho     :      1.26s CPU      1.31s WALL (      16 calls)
     newd         :      4.49s CPU      4.83s WALL (      16 calls)
     mix_rho      :      1.14s CPU      1.23s WALL (      15 calls)

     Called by c_bands:
     init_us_2    :      3.00s CPU      3.02s WALL (     256 calls)
     cegterg      :    179.60s CPU    181.65s WALL (     120 calls)

     Called by sum_band:
     sum_band:bec :      0.36s CPU      0.37s WALL (     120 calls)
     addusdens    :      6.33s CPU      7.05s WALL (      15 calls)

     Called by *egterg:
     h_psi        :     94.24s CPU     95.73s WALL (     524 calls)
     s_psi        :     19.94s CPU     19.95s WALL (     524 calls)
     g_psi        :      0.34s CPU      0.35s WALL (     396 calls)
     cdiaghg      :     37.08s CPU     37.58s WALL (     516 calls)

     Called by h_psi:
     h_psi:pot    :     93.49s CPU     94.96s WALL (     524 calls)
     h_psi:calbec :     20.93s CPU     21.44s WALL (     524 calls)
     vloc_psi     :     52.64s CPU     53.59s WALL (     524 calls)
     add_vuspsi   :     19.90s CPU     19.93s WALL (     524 calls)

     General routines
     calbec       :     31.50s CPU     32.25s WALL (     676 calls)
     fft          :      1.10s CPU      1.17s WALL (     217 calls)
     ffts         :      0.52s CPU      0.60s WALL (     443 calls)
     fftw         :     58.68s CPU     59.74s WALL (  119326 calls)
     interpolate  :      0.11s CPU      0.12s WALL (      16 calls)
 
     Parallel routines
     fft_scatt_xy :      6.14s CPU      6.25s WALL (  119986 calls)
     fft_scatt_yz :     23.78s CPU     24.33s WALL (  119986 calls)
 
     PWSCF        :   4m 1.29s CPU   4m 5.60s WALL

 
   This run was terminated on:  23:15:45  24Dec2021            

=------------------------------------------------------------------------------=
   JOB DONE.
=------------------------------------------------------------------------------=
