
     Program PWSCF v.6.4 starts on 25Dec2021 at  0:12: 5 

     This program is part of the open-source Quantum ESPRESSO suite
     for quantum simulation of materials; please cite
         "P. Giannozzi et al., J. Phys.:Condens. Matter 21 395502 (2009);
         "P. Giannozzi et al., J. Phys.:Condens. Matter 29 465901 (2017);
          URL http://www.quantum-espresso.org", 
     in publications or presentations arising from this work. More details at
     http://www.quantum-espresso.org/quote

     Parallel version (MPI), running on    40 processors

     MPI processes distributed on     1 nodes
     R & G space division:  proc/nbgrp/npool/nimage =      40
     Waiting for input...
     Reading input from standard input
Warning: card    &IONS ignored
Warning: card      ION_DYNAMICS = 'BFGS' ignored
Warning: card   / ignored
Warning: card    &CELL ignored
Warning: card      CELL_DYNAMICS = 'BFGS', ignored
Warning: card    / ignored

     Current dimensions of program PWSCF are:
     Max number of different atomic species (ntypx) = 10
     Max number of k-points (npk) =  40000
     Max angular momentum in pseudopotentials (lmaxx) =  3

     Subspace diagonalization in iterative solution of the eigenvalue problem:
     one sub-group per band group will be used
     scalapack distributed-memory algorithm (size of sub-group:  4*  4 procs)

 
     Parallelization info
     --------------------
     sticks:   dense  smooth     PW     G-vecs:    dense   smooth      PW
     Min          91      45     12                15413     5441     782
     Max          92      46     13                15436     5460     803
     Sum        3667    1813    511               616783   217823   31719
 


     bravais-lattice index     =            0
     lattice parameter (alat)  =      12.1536  a.u.
     unit-cell volume          =    5345.9129 (a.u.)^3
     number of atoms/cell      =           36
     number of atomic types    =            2
     number of electrons       =       216.00
     number of Kohn-Sham states=          130
     kinetic-energy cutoff     =      45.0000  Ry
     charge density cutoff     =     360.0000  Ry
     convergence threshold     =      1.0E-06
     mixing beta               =       0.7000
     number of iterations used =            8  local-TF  mixing
     Exchange-correlation      = SLA PW GGX GGC ( 1  4  2  2 0 0)

     celldm(1)=  12.153560  celldm(2)=   0.000000  celldm(3)=   0.000000
     celldm(4)=   0.000000  celldm(5)=   0.000000  celldm(6)=   0.000000

     crystal axes: (cart. coord. in units of alat)
               a(1) = (   1.000000   0.000000   0.000000 )  
               a(2) = (  -0.500000   0.866026   0.000000 )  
               a(3) = (   0.000000   0.000000   3.438592 )  

     reciprocal axes: (cart. coord. in units 2 pi/alat)
               b(1) = (  1.000000  0.577350  0.000000 )  
               b(2) = (  0.000000  1.154700  0.000000 )  
               b(3) = (  0.000000  0.000000  0.290817 )  


     PseudoPot. # 1 for Mo read from file:
     ~/pseudo/Mo.pw91-n-van.UPF
     MD5 check sum: Not computed, couldn't open file
     Pseudo is Ultrasoft + core correction, Zval =  6.0
     Generated by new atomic code, or converted to UPF format
     Using radial grid of  965 points,  3 beta functions with: 
                l(1) =   1
                l(2) =   2
                l(3) =   2
     Q(r) pseudized with  8 coefficients,  rinner =    1.000   1.000   1.000
                                                       1.200   1.200

     PseudoPot. # 2 for S  read from file:
     ~/pseudo/S.pw91-van_ak.UPF
     MD5 check sum: Not computed, couldn't open file
     Pseudo is Ultrasoft, Zval =  6.0
     Generated by new atomic code, or converted to UPF format
     Using radial grid of  811 points,  6 beta functions with: 
                l(1) =   0
                l(2) =   0
                l(3) =   1
                l(4) =   1
                l(5) =   2
                l(6) =   2
     Q(r) pseudized with  8 coefficients,  rinner =    1.100   1.100   1.100
                                                       1.100   1.100

     atomic species   valence    mass     pseudopotential
        Mo             6.00    95.50000     Mo( 1.00)
        S              6.00    32.06500     S ( 1.00)

     No symmetry found



   Cartesian axes

     site n.     atom                  positions (alat units)
         1           Mo  tau(   1) = (   0.2891023   0.7003672   1.5919958  )
         2           Mo  tau(   2) = (   0.4784499   0.0144794   2.8213246  )
         3           Mo  tau(   3) = (   0.3773061   0.6583486   0.3303406  )
         4           Mo  tau(   4) = (   0.5398468   0.2687308   1.5922719  )
         5           Mo  tau(   5) = (   0.7138459   0.4581400   2.8226150  )
         6           Mo  tau(   6) = (   0.6181527   0.2197504   0.3377220  )
         7           Mo  tau(   7) = (   0.9703537   0.0240002   2.8118300  )
         8           Mo  tau(   8) = (   0.0380015   0.2699968   1.6099096  )
         9           Mo  tau(   9) = (  -0.2134442   0.6994405   1.6103269  )
        10           Mo  tau(  10) = (   0.2232605   0.4569587   2.8117199  )
        11           Mo  tau(  11) = (   0.1269909   0.2132169   0.3407791  )
        12           Mo  tau(  12) = (  -0.1222302   0.6584250   0.3320593  )
        13           S   tau(  13) = (   0.2156327   0.7419430   2.5817416  )
        14           S   tau(  14) = (   0.2225781   0.7437076   3.0753058  )
        15           S   tau(  15) = (   0.3746326   0.0738429   0.0776264  )
        16           S   tau(  16) = (   0.3837772   0.0749236   0.5761465  )
        17           S   tau(  17) = (   0.5387038   0.5459069   1.3551369  )
        18           S   tau(  18) = (   0.5427745   0.5630905   1.8499344  )
        19           S   tau(  19) = (   0.4722500   0.3103489   2.5844034  )
        20           S   tau(  20) = (   0.4666828   0.3157531   3.0709170  )
        21           S   tau(  21) = (   0.6167890   0.5031673   0.0828523  )
        22           S   tau(  22) = (   0.6295919   0.5031482   0.5855584  )
        23           S   tau(  23) = (   0.7849861   0.1195658   1.3637951  )
        24           S   tau(  24) = (   0.7863889   0.1150998   1.8523466  )
        25           S   tau(  25) = (   0.8813010   0.0749631   0.0805102  )
        26           S   tau(  26) = (   0.8841382   0.0718347   0.5795438  )
        27           S   tau(  27) = (  -0.0265907   0.3178388   2.5703009  )
        28           S   tau(  28) = (  -0.0270567   0.3114736   3.0751825  )
        29           S   tau(  29) = (  -0.2777735   0.7449644   2.5841930  )
        30           S   tau(  30) = (  -0.2850400   0.7398610   3.0711816  )
        31           S   tau(  31) = (   0.1295960   0.5128248   0.0895340  )
        32           S   tau(  32) = (   0.1285234   0.5030521   0.5693247  )
        33           S   tau(  33) = (   0.2890235   0.1247967   1.3467659  )
        34           S   tau(  34) = (   0.2913618   0.1216242   1.8557921  )
        35           S   tau(  35) = (   0.0343174   0.5546298   1.3638563  )
        36           S   tau(  36) = (   0.0409112   0.5497266   1.8540822  )

     number of k points=     5  Marzari-Vanderbilt smearing, width (Ry)=  0.0200
                       cart. coord. in units 2pi/alat
        k(    1) = (   0.0000000   0.0000000   0.0000000), wk =   0.2222222
        k(    2) = (   0.0000000   0.3849001   0.0000000), wk =   0.4444444
        k(    3) = (   0.3333333   0.5773502   0.0000000), wk =   0.4444444
        k(    4) = (  -0.3333333   0.1924501   0.0000000), wk =   0.4444444
        k(    5) = (   0.3333333   0.1924501   0.0000000), wk =   0.4444444

     Dense  grid:   616783 G-vectors     FFT dimensions: (  75,  75, 256)

     Smooth grid:   217823 G-vectors     FFT dimensions: (  54,  54, 180)

     Estimated max dynamical RAM per process >      98.58 MB

     Estimated total dynamical RAM >       3.85 GB

     Initial potential from superposition of free atoms

     starting charge  215.98107, renormalised to  216.00000
     Starting wfcs are  204 randomized atomic wfcs

     total cpu time spent up to now is        4.5 secs

     Self-consistent Calculation

     iteration #  1     ecut=    45.00 Ry     beta= 0.70
     Davidson diagonalization with overlap
     ethr =  1.00E-02,  avg # of iterations =  2.0

     total cpu time spent up to now is       10.7 secs

     total energy              =    -844.12918623 Ry
     Harris-Foulkes estimate   =    -846.75064717 Ry
     estimated scf accuracy    <       6.71005566 Ry

     iteration #  2     ecut=    45.00 Ry     beta= 0.70
     Davidson diagonalization with overlap
     ethr =  3.11E-03,  avg # of iterations =  2.2

     total cpu time spent up to now is       16.2 secs

     total energy              =    -845.36276662 Ry
     Harris-Foulkes estimate   =    -845.53841894 Ry
     estimated scf accuracy    <       0.93019493 Ry

     iteration #  3     ecut=    45.00 Ry     beta= 0.70
     Davidson diagonalization with overlap
     ethr =  4.31E-04,  avg # of iterations =  2.0

     total cpu time spent up to now is       21.1 secs

     total energy              =    -845.37021499 Ry
     Harris-Foulkes estimate   =    -845.44311983 Ry
     estimated scf accuracy    <       0.20928117 Ry

     iteration #  4     ecut=    45.00 Ry     beta= 0.70
     Davidson diagonalization with overlap
     ethr =  9.69E-05,  avg # of iterations =  3.2

     total cpu time spent up to now is       27.9 secs

     total energy              =    -845.42097019 Ry
     Harris-Foulkes estimate   =    -845.45094652 Ry
     estimated scf accuracy    <       0.12034429 Ry

     iteration #  5     ecut=    45.00 Ry     beta= 0.70
     Davidson diagonalization with overlap
     ethr =  5.57E-05,  avg # of iterations =  4.2

     total cpu time spent up to now is       34.0 secs

     total energy              =    -845.43004285 Ry
     Harris-Foulkes estimate   =    -845.43244544 Ry
     estimated scf accuracy    <       0.00665509 Ry

     iteration #  6     ecut=    45.00 Ry     beta= 0.70
     Davidson diagonalization with overlap
     ethr =  3.08E-06,  avg # of iterations =  7.0

     total cpu time spent up to now is       44.5 secs

     total energy              =    -845.43293258 Ry
     Harris-Foulkes estimate   =    -845.43543455 Ry
     estimated scf accuracy    <       0.01300932 Ry

     iteration #  7     ecut=    45.00 Ry     beta= 0.70
     Davidson diagonalization with overlap
     ethr =  3.08E-06,  avg # of iterations =  2.0

     total cpu time spent up to now is       49.5 secs

     total energy              =    -845.43357931 Ry
     Harris-Foulkes estimate   =    -845.43372014 Ry
     estimated scf accuracy    <       0.00180387 Ry

     iteration #  8     ecut=    45.00 Ry     beta= 0.70
     Davidson diagonalization with overlap
     ethr =  8.35E-07,  avg # of iterations =  2.2

     total cpu time spent up to now is       54.6 secs

     total energy              =    -845.43344417 Ry
     Harris-Foulkes estimate   =    -845.43368498 Ry
     estimated scf accuracy    <       0.00095068 Ry

     iteration #  9     ecut=    45.00 Ry     beta= 0.70
     Davidson diagonalization with overlap
     ethr =  4.40E-07,  avg # of iterations =  6.0

     total cpu time spent up to now is       62.6 secs

     total energy              =    -845.43368300 Ry
     Harris-Foulkes estimate   =    -845.43366134 Ry
     estimated scf accuracy    <       0.00019695 Ry

     iteration # 10     ecut=    45.00 Ry     beta= 0.70
     Davidson diagonalization with overlap
     ethr =  9.12E-08,  avg # of iterations =  3.2

     total cpu time spent up to now is       68.3 secs

     total energy              =    -845.43369112 Ry
     Harris-Foulkes estimate   =    -845.43371629 Ry
     estimated scf accuracy    <       0.00051467 Ry

     iteration # 11     ecut=    45.00 Ry     beta= 0.70
     Davidson diagonalization with overlap
     ethr =  9.12E-08,  avg # of iterations =  1.0

     total cpu time spent up to now is       72.9 secs

     total energy              =    -845.43357269 Ry
     Harris-Foulkes estimate   =    -845.43369400 Ry
     estimated scf accuracy    <       0.00041406 Ry

     iteration # 12     ecut=    45.00 Ry     beta= 0.70
     Davidson diagonalization with overlap
     ethr =  9.12E-08,  avg # of iterations =  3.0

     total cpu time spent up to now is       79.2 secs

     total energy              =    -845.43363544 Ry
     Harris-Foulkes estimate   =    -845.43364380 Ry
     estimated scf accuracy    <       0.00004710 Ry

     iteration # 13     ecut=    45.00 Ry     beta= 0.70
     Davidson diagonalization with overlap
     ethr =  2.18E-08,  avg # of iterations =  2.0

     total cpu time spent up to now is       84.1 secs

     total energy              =    -845.43363807 Ry
     Harris-Foulkes estimate   =    -845.43363903 Ry
     estimated scf accuracy    <       0.00000746 Ry

     iteration # 14     ecut=    45.00 Ry     beta= 0.70
     Davidson diagonalization with overlap
     ethr =  3.45E-09,  avg # of iterations =  3.2

     total cpu time spent up to now is       90.0 secs

     total energy              =    -845.43363899 Ry
     Harris-Foulkes estimate   =    -845.43363921 Ry
     estimated scf accuracy    <       0.00000152 Ry

     iteration # 15     ecut=    45.00 Ry     beta= 0.70
     Davidson diagonalization with overlap
     ethr =  7.02E-10,  avg # of iterations =  2.0

     total cpu time spent up to now is       94.9 secs

     End of self-consistent calculation

          k = 0.0000 0.0000 0.0000 ( 27203 PWs)   bands (ev):

    -8.5998  -8.4237  -8.3466  -7.4860  -7.1954  -7.1794  -6.8966  -6.8527
    -6.8492  -6.7619  -6.7085  -6.7027  -6.6676  -6.6441  -6.5833  -6.5228
    -6.4985  -6.4859  -6.4848  -6.4214  -6.3851  -6.3635  -6.3243  -6.2725
    -0.3150  -0.2461  -0.2010  -0.1667  -0.1402  -0.1268  -0.0338  -0.0261
     0.0282   0.0559   0.1710   0.2885   0.5952   0.7137   0.7350   0.7787
     0.7956   0.8934   0.9361   0.9561   0.9742   1.2947   1.4743   1.5089
     1.5457   1.5872   1.5941   1.6386   1.7263   1.7457   2.2804   2.3327
     2.3894   2.4189   2.4671   2.4716   2.4850   2.5366   2.6163   2.8597
     2.9188   2.9452   2.9766   3.0467   3.0737   3.1250   3.1885   3.5020
     3.5564   3.6043   3.6566   3.6833   3.7328   3.7874   3.8257   3.9412
     4.0369   4.0595   4.0618   4.1528   4.1901   4.2342   4.4300   4.4549
     4.5096   4.5618   4.5800   4.6388   4.6765   4.7097   4.7200   4.7789
     4.8018   4.8472   4.9003   4.9151   4.9278   4.9357   5.0192   5.0260
     5.0943   5.3768   5.6223   5.8925   7.4355   7.4604   7.4711   7.4749
     7.5394   7.5550   7.5741   7.5764   7.6162   7.8641   7.9098   7.9612
     7.9764   7.9850   8.0161   8.0356   8.0784   8.0824   8.0970   8.1264
     8.1338   8.2011

          k = 0.0000 0.3849 0.0000 ( 27224 PWs)   bands (ev):

    -8.2336  -8.0686  -7.9845  -7.3617  -7.3036  -7.2414  -7.1495  -7.0232
    -7.0113  -6.9043  -6.8620  -6.8072  -6.7496  -6.7153  -6.6946  -6.6394
    -6.6367  -6.5786  -6.5321  -6.5059  -6.3925  -6.3686  -6.3326  -6.2775
     0.0748   0.1803   0.2298   0.2974   0.3454   0.3788   0.4194   0.4648
     0.4902   0.5304   0.6274   0.6542   0.6715   0.7048   0.7566   0.8317
     0.8646   0.8886   1.2024   1.3961   1.4551   1.5385   1.6584   1.7045
     1.7233   1.7757   1.7861   1.8485   1.9064   1.9204   2.0951   2.1796
     2.2044   2.2925   2.3098   2.4317   2.4721   2.4787   2.5292   2.5603
     2.6620   2.7660   2.7844   2.9077   2.9380   3.0394   3.1028   3.1884
     3.2664   3.2842   3.3163   3.3451   3.3563   3.4696   3.5182   3.5911
     3.6432   3.7192   3.7428   3.7556   3.8410   3.8673   3.8958   3.9587
     4.0073   4.0227   4.1530   4.2123   4.2425   4.3456   4.4693   4.5086
     4.5958   4.6182   4.7599   4.8994   4.9306   5.1093   5.1221   5.1647
     5.2192   5.2253   5.2909   5.3224   7.3173   7.3425   7.4129   7.4680
     7.4923   7.5245   7.5916   7.6225   7.6293   7.6720   7.6960   7.6984
     7.7794   7.8209   7.8598   7.9326   7.9485   7.9790   7.9945   8.0239
     8.0804   8.0899

          k = 0.3333 0.5774 0.0000 ( 27249 PWs)   bands (ev):

    -7.6748  -7.6386  -7.5694  -7.5249  -7.4444  -7.4402  -7.4096  -7.3737
    -7.2675  -7.0069  -6.9752  -6.9093  -6.7549  -6.7440  -6.7385  -6.7157
    -6.6801  -6.6687  -6.5463  -6.4943  -6.3541  -6.3512  -6.2531  -6.1723
     0.2274   0.2618   0.3994   0.4166   0.4448   0.5419   0.7714   0.7930
     0.8149   0.8331   0.8944   0.9643   0.9738   1.0263   1.1676   1.4107
     1.4490   1.4882   1.5080   1.5637   1.6504   1.7196   1.7714   1.7781
     1.8241   1.8623   1.8845   1.8902   1.9107   1.9259   1.9642   2.0208
     2.0276   2.0383   2.0778   2.1031   2.1110   2.1297   2.1897   2.2812
     2.3446   2.3838   2.5079   2.5355   2.5491   2.5764   2.5859   2.5994
     2.6281   2.7244   2.7809   3.2440   3.4266   3.4544   3.4814   3.5275
     3.5991   3.6256   3.6623   3.6651   3.6968   3.7629   3.7969   4.1196
     4.1957   4.3074   4.4054   4.4219   4.4995   4.5590   4.5726   4.6012
     4.6478   4.7488   4.7630   4.8012   4.8086   4.8186   4.8602   4.8664
     4.9573   5.4646   5.5041   5.5961   6.9333   6.9736   7.0717   7.1090
     7.1668   7.1866   7.3478   7.3759   7.3950   7.4350   7.4600   7.5185
     7.6819   7.7305   7.7602   7.8184   7.8768   7.8821   7.9085   7.9303
     7.9534   8.0696

          k =-0.3333 0.1925 0.0000 ( 27224 PWs)   bands (ev):

    -8.2384  -8.0687  -7.9882  -7.3935  -7.2923  -7.2553  -7.1508  -7.0128
    -7.0051  -6.8786  -6.8670  -6.7951  -6.7376  -6.7200  -6.6997  -6.6108
    -6.6028  -6.5334  -6.5312  -6.4963  -6.4479  -6.3961  -6.3648  -6.2953
     0.0745   0.2063   0.2269   0.2791   0.3300   0.3381   0.4189   0.4940
     0.4972   0.5113   0.6231   0.6625   0.6899   0.7165   0.7449   0.7833
     0.8931   0.9408   1.1513   1.4928   1.5492   1.5777   1.6603   1.6945
     1.7330   1.7513   1.7641   1.8304   1.8978   1.9299   2.0830   2.1823
     2.2202   2.2992   2.3156   2.4153   2.4441   2.4574   2.5240   2.5409
     2.6751   2.7405   2.7943   2.8711   2.9665   3.0440   3.1084   3.1794
     3.2611   3.2653   3.3183   3.3662   3.4121   3.4131   3.4944   3.5461
     3.6218   3.6497   3.6576   3.7708   3.8187   3.8463   3.8912   3.9370
     3.9880   4.0301   4.1516   4.2574   4.3112   4.3434   4.4920   4.5548
     4.6544   4.7038   4.8341   4.9194   4.9970   5.0344   5.1173   5.1265
     5.2019   5.2327   5.3335   5.4059   7.2575   7.3522   7.3620   7.4279
     7.4637   7.5506   7.5726   7.6099   7.6177   7.6629   7.6852   7.7261
     7.7673   7.7778   7.8160   7.9002   7.9299   7.9613   7.9894   7.9993
     8.0158   8.0413

          k = 0.3333 0.1925 0.0000 ( 27224 PWs)   bands (ev):

    -8.2347  -8.0705  -7.9876  -7.3704  -7.2859  -7.2382  -7.1512  -7.0203
    -7.0100  -6.9020  -6.8862  -6.8153  -6.7532  -6.7085  -6.6976  -6.6341
    -6.6128  -6.5693  -6.5327  -6.5106  -6.3972  -6.3605  -6.3346  -6.2969
     0.0737   0.1911   0.2371   0.2844   0.3341   0.3893   0.4330   0.4573
     0.4772   0.5191   0.6275   0.6585   0.6919   0.6987   0.7601   0.8336
     0.8953   0.9249   1.1992   1.3963   1.4683   1.5562   1.6590   1.6944
     1.7222   1.7503   1.7786   1.8441   1.9060   1.9322   2.0911   2.1736
     2.2143   2.2733   2.3176   2.4467   2.4594   2.4725   2.5155   2.5329
     2.6641   2.7529   2.8047   2.8372   2.9530   3.0254   3.0949   3.2092
     3.2563   3.3065   3.3120   3.3610   3.3669   3.4729   3.5361   3.5764
     3.6092   3.6787   3.7218   3.7537   3.8373   3.8707   3.8913   3.9603
     3.9893   4.0343   4.1602   4.1864   4.2560   4.3599   4.4396   4.5241
     4.5896   4.7402   4.8132   4.9267   4.9975   5.0715   5.1071   5.1364
     5.1921   5.2227   5.3112   5.3473   7.3082   7.3431   7.4313   7.4561
     7.5040   7.5377   7.5704   7.6218   7.6267   7.6772   7.6925   7.7197
     7.8052   7.8106   7.8375   7.9175   7.9326   7.9793   8.0030   8.0161
     8.0398   8.0771

     the Fermi energy is     5.6809 ev

!    total energy              =    -845.43363899 Ry
     Harris-Foulkes estimate   =    -845.43363916 Ry
     estimated scf accuracy    <       0.00000021 Ry

     The total energy is the sum of the following terms:

     one-electron contribution =    -423.11700735 Ry
     hartree contribution      =     328.65734079 Ry
     xc contribution           =    -334.11601059 Ry
     ewald contribution        =    -416.88127273 Ry
     smearing contrib. (-TS)   =       0.02331089 Ry

     convergence has been achieved in  15 iterations

     Forces acting on atoms (cartesian axes, Ry/au):

     atom    1 type  1   force =    -0.00080079   -0.02957553    0.08694056
     atom    2 type  1   force =    -0.05625162    0.04784045    0.07256641
     atom    3 type  1   force =     0.01352198   -0.03559005    0.00707250
     atom    4 type  1   force =    -0.02541898   -0.02282221    0.09686207
     atom    5 type  1   force =     0.05526805   -0.02369807    0.03396722
     atom    6 type  1   force =     0.06862378   -0.00348041   -0.05886504
     atom    7 type  1   force =    -0.00484353    0.01407897    0.08399420
     atom    8 type  1   force =     0.00831080   -0.04343074   -0.01627711
     atom    9 type  1   force =     0.01945978    0.01921787   -0.03600850
     atom   10 type  1   force =    -0.02636099   -0.01365413    0.10160458
     atom   11 type  1   force =     0.01442634    0.02463455   -0.08574247
     atom   12 type  1   force =    -0.02511476   -0.04598998   -0.02149280
     atom   13 type  2   force =     0.02645500    0.00863980   -0.06264721
     atom   14 type  2   force =     0.01019802   -0.00452921   -0.04562096
     atom   15 type  2   force =    -0.00122339    0.00563286    0.04078501
     atom   16 type  2   force =    -0.02406165   -0.01109984    0.03926843
     atom   17 type  2   force =     0.01133185    0.04134052   -0.01867957
     atom   18 type  2   force =    -0.02577704   -0.02646969   -0.01493243
     atom   19 type  2   force =     0.00629276   -0.01683397   -0.04576344
     atom   20 type  2   force =     0.00093538   -0.02009513   -0.03195631
     atom   21 type  2   force =     0.02534240    0.01360701    0.03399030
     atom   22 type  2   force =    -0.00672953    0.02403114   -0.02299015
     atom   23 type  2   force =     0.03001285    0.01951660   -0.04445543
     atom   24 type  2   force =    -0.00363710    0.01481539   -0.02830402
     atom   25 type  2   force =    -0.01758387    0.01412662    0.04056645
     atom   26 type  2   force =    -0.03244422    0.00553312    0.01372451
     atom   27 type  2   force =    -0.02065160   -0.00797474    0.00090670
     atom   28 type  2   force =    -0.00626309    0.00321715   -0.06345597
     atom   29 type  2   force =     0.00381928   -0.00436788   -0.04397799
     atom   30 type  2   force =     0.00766155    0.01924588   -0.03225228
     atom   31 type  2   force =    -0.01064350   -0.01732039    0.01258182
     atom   32 type  2   force =    -0.00097283    0.02399246    0.03212993
     atom   33 type  2   force =    -0.01469931   -0.00930546    0.04022342
     atom   34 type  2   force =     0.00442309    0.01287757   -0.03068023
     atom   35 type  2   force =    -0.00604778   -0.00163004   -0.01975762
     atom   36 type  2   force =     0.00344266    0.02551953   -0.01332458

     Total force =     0.349423     Total SCF correction =     0.001202
 
     init_run     :      3.37s CPU      3.62s WALL (       1 calls)
     electrons    :     87.60s CPU     90.34s WALL (       1 calls)
     forces       :      1.93s CPU      2.00s WALL (       1 calls)

     Called by init_run:
     wfcinit      :      2.17s CPU      2.28s WALL (       1 calls)
     potinit      :      0.24s CPU      0.24s WALL (       1 calls)
     hinit0       :      0.33s CPU      0.37s WALL (       1 calls)

     Called by electrons:
     c_bands      :     69.13s CPU     70.16s WALL (      15 calls)
     sum_band     :     13.43s CPU     14.51s WALL (      15 calls)
     v_of_rho     :      0.96s CPU      1.01s WALL (      16 calls)
     newd         :      3.27s CPU      3.87s WALL (      16 calls)
     mix_rho      :      0.96s CPU      0.97s WALL (      15 calls)

     Called by c_bands:
     init_us_2    :      1.81s CPU      1.82s WALL (     160 calls)
     cegterg      :     64.27s CPU     65.28s WALL (      75 calls)

     Called by sum_band:
     sum_band:bec :      0.12s CPU      0.12s WALL (      75 calls)
     addusdens    :      5.28s CPU      6.17s WALL (      15 calls)

     Called by *egterg:
     h_psi        :     33.25s CPU     33.98s WALL (     306 calls)
     s_psi        :      6.76s CPU      6.78s WALL (     306 calls)
     g_psi        :      0.17s CPU      0.17s WALL (     226 calls)
     cdiaghg      :     13.58s CPU     13.85s WALL (     301 calls)

     Called by h_psi:
     h_psi:pot    :     32.86s CPU     33.59s WALL (     306 calls)
     h_psi:calbec :      7.53s CPU      7.80s WALL (     306 calls)
     vloc_psi     :     18.60s CPU     19.04s WALL (     306 calls)
     add_vuspsi   :      6.73s CPU      6.75s WALL (     306 calls)

     General routines
     calbec       :     11.09s CPU     11.48s WALL (     401 calls)
     fft          :      0.71s CPU      0.80s WALL (     217 calls)
     ffts         :      0.41s CPU      0.41s WALL (     467 calls)
     fftw         :     20.81s CPU     21.28s WALL (   59434 calls)
     interpolate  :      0.08s CPU      0.08s WALL (      16 calls)
 
     Parallel routines
     fft_scatt_xy :      2.36s CPU      2.42s WALL (   60118 calls)
     fft_scatt_yz :      9.18s CPU      9.43s WALL (   60118 calls)
 
     PWSCF        :   1m33.69s CPU   1m36.93s WALL

 
   This run was terminated on:   0:13:42  25Dec2021            

=------------------------------------------------------------------------------=
   JOB DONE.
=------------------------------------------------------------------------------=

     Program PWSCF v.6.4 starts on 25Dec2021 at  0:14:49 

     This program is part of the open-source Quantum ESPRESSO suite
     for quantum simulation of materials; please cite
         "P. Giannozzi et al., J. Phys.:Condens. Matter 21 395502 (2009);
         "P. Giannozzi et al., J. Phys.:Condens. Matter 29 465901 (2017);
          URL http://www.quantum-espresso.org", 
     in publications or presentations arising from this work. More details at
     http://www.quantum-espresso.org/quote

     Parallel version (MPI), running on    40 processors

     MPI processes distributed on     1 nodes
     R & G space division:  proc/nbgrp/npool/nimage =      40
     Waiting for input...
     Reading input from standard input
Warning: card    &IONS ignored
Warning: card      ION_DYNAMICS = 'BFGS' ignored
Warning: card   / ignored
Warning: card    &CELL ignored
Warning: card      CELL_DYNAMICS = 'BFGS', ignored
Warning: card    / ignored

     Current dimensions of program PWSCF are:
     Max number of different atomic species (ntypx) = 10
     Max number of k-points (npk) =  40000
     Max angular momentum in pseudopotentials (lmaxx) =  3

     Subspace diagonalization in iterative solution of the eigenvalue problem:
     one sub-group per band group will be used
     scalapack distributed-memory algorithm (size of sub-group:  4*  4 procs)

 
     Parallelization info
     --------------------
     sticks:   dense  smooth     PW     G-vecs:    dense   smooth      PW
     Min          91      45     12                15413     5441     782
     Max          92      46     13                15436     5460     803
     Sum        3667    1813    511               616783   217823   31719
 


     bravais-lattice index     =            0
     lattice parameter (alat)  =      12.1536  a.u.
     unit-cell volume          =    5345.9129 (a.u.)^3
     number of atoms/cell      =           36
     number of atomic types    =            2
     number of electrons       =       216.00
     number of Kohn-Sham states=          130
     kinetic-energy cutoff     =      45.0000  Ry
     charge density cutoff     =     360.0000  Ry
     convergence threshold     =      1.0E-06
     mixing beta               =       0.7000
     number of iterations used =            8  local-TF  mixing
     Exchange-correlation      = SLA PW GGX GGC ( 1  4  2  2 0 0)

     celldm(1)=  12.153560  celldm(2)=   0.000000  celldm(3)=   0.000000
     celldm(4)=   0.000000  celldm(5)=   0.000000  celldm(6)=   0.000000

     crystal axes: (cart. coord. in units of alat)
               a(1) = (   1.000000   0.000000   0.000000 )  
               a(2) = (  -0.500000   0.866026   0.000000 )  
               a(3) = (   0.000000   0.000000   3.438592 )  

     reciprocal axes: (cart. coord. in units 2 pi/alat)
               b(1) = (  1.000000  0.577350  0.000000 )  
               b(2) = (  0.000000  1.154700  0.000000 )  
               b(3) = (  0.000000  0.000000  0.290817 )  


     PseudoPot. # 1 for Mo read from file:
     ~/pseudo/Mo.pw91-n-van.UPF
     MD5 check sum: Not computed, couldn't open file
     Pseudo is Ultrasoft + core correction, Zval =  6.0
     Generated by new atomic code, or converted to UPF format
     Using radial grid of  965 points,  3 beta functions with: 
                l(1) =   1
                l(2) =   2
                l(3) =   2
     Q(r) pseudized with  8 coefficients,  rinner =    1.000   1.000   1.000
                                                       1.200   1.200

     PseudoPot. # 2 for S  read from file:
     ~/pseudo/S.pw91-van_ak.UPF
     MD5 check sum: Not computed, couldn't open file
     Pseudo is Ultrasoft, Zval =  6.0
     Generated by new atomic code, or converted to UPF format
     Using radial grid of  811 points,  6 beta functions with: 
                l(1) =   0
                l(2) =   0
                l(3) =   1
                l(4) =   1
                l(5) =   2
                l(6) =   2
     Q(r) pseudized with  8 coefficients,  rinner =    1.100   1.100   1.100
                                                       1.100   1.100

     atomic species   valence    mass     pseudopotential
        Mo             6.00    95.50000     Mo( 1.00)
        S              6.00    32.06500     S ( 1.00)

     No symmetry found



   Cartesian axes

     site n.     atom                  positions (alat units)
         1           Mo  tau(   1) = (   0.2891023   0.7003672   1.5919958  )
         2           Mo  tau(   2) = (   0.4784499   0.0144794   2.8213246  )
         3           Mo  tau(   3) = (   0.3773061   0.6583486   0.3303406  )
         4           Mo  tau(   4) = (   0.5398468   0.2687308   1.5922719  )
         5           Mo  tau(   5) = (   0.7138459   0.4581400   2.8226150  )
         6           Mo  tau(   6) = (   0.6181527   0.2197504   0.3377220  )
         7           Mo  tau(   7) = (   0.9703537   0.0240002   2.8118300  )
         8           Mo  tau(   8) = (   0.0380015   0.2699968   1.6099096  )
         9           Mo  tau(   9) = (  -0.2134442   0.6994405   1.6103269  )
        10           Mo  tau(  10) = (   0.2232605   0.4569587   2.8117199  )
        11           Mo  tau(  11) = (   0.1269909   0.2132169   0.3407791  )
        12           Mo  tau(  12) = (  -0.1222302   0.6584250   0.3320593  )
        13           S   tau(  13) = (   0.2156327   0.7419430   2.5817416  )
        14           S   tau(  14) = (   0.2225781   0.7437076   3.0753058  )
        15           S   tau(  15) = (   0.3746326   0.0738429   0.0776264  )
        16           S   tau(  16) = (   0.3837772   0.0749236   0.5761465  )
        17           S   tau(  17) = (   0.5387038   0.5459069   1.3551369  )
        18           S   tau(  18) = (   0.5427745   0.5630905   1.8499344  )
        19           S   tau(  19) = (   0.4722500   0.3103489   2.5844034  )
        20           S   tau(  20) = (   0.4666828   0.3157531   3.0709170  )
        21           S   tau(  21) = (   0.6167890   0.5031673   0.0828523  )
        22           S   tau(  22) = (   0.6295919   0.5031482   0.5855584  )
        23           S   tau(  23) = (   0.7849861   0.1195658   1.3637951  )
        24           S   tau(  24) = (   0.7863889   0.1150998   1.8523466  )
        25           S   tau(  25) = (   0.8813010   0.0749631   0.0805102  )
        26           S   tau(  26) = (   0.8841382   0.0718347   0.5795438  )
        27           S   tau(  27) = (  -0.0265907   0.3178388   2.5703009  )
        28           S   tau(  28) = (  -0.0270567   0.3114736   3.0751825  )
        29           S   tau(  29) = (  -0.2777735   0.7449644   2.5841930  )
        30           S   tau(  30) = (  -0.2850400   0.7398610   3.0711816  )
        31           S   tau(  31) = (   0.1295960   0.5128248   0.0895340  )
        32           S   tau(  32) = (   0.1285234   0.5030521   0.5693247  )
        33           S   tau(  33) = (   0.2890235   0.1247967   1.3467659  )
        34           S   tau(  34) = (   0.2913618   0.1216242   1.8557921  )
        35           S   tau(  35) = (   0.0343174   0.5546298   1.3638563  )
        36           S   tau(  36) = (   0.0409112   0.5497266   1.8540822  )

     number of k points=     5  Marzari-Vanderbilt smearing, width (Ry)=  0.0200
                       cart. coord. in units 2pi/alat
        k(    1) = (   0.0000000   0.0000000   0.0000000), wk =   0.2222222
        k(    2) = (   0.0000000   0.3849001   0.0000000), wk =   0.4444444
        k(    3) = (   0.3333333   0.5773502   0.0000000), wk =   0.4444444
        k(    4) = (  -0.3333333   0.1924501   0.0000000), wk =   0.4444444
        k(    5) = (   0.3333333   0.1924501   0.0000000), wk =   0.4444444

     Dense  grid:   616783 G-vectors     FFT dimensions: (  75,  75, 256)

     Smooth grid:   217823 G-vectors     FFT dimensions: (  54,  54, 180)

     Estimated max dynamical RAM per process >      98.58 MB

     Estimated total dynamical RAM >       3.85 GB

     Initial potential from superposition of free atoms

     starting charge  215.98107, renormalised to  216.00000
     Starting wfcs are  204 randomized atomic wfcs

     total cpu time spent up to now is        4.2 secs

     Self-consistent Calculation

     iteration #  1     ecut=    45.00 Ry     beta= 0.70
     Davidson diagonalization with overlap
     ethr =  1.00E-02,  avg # of iterations =  2.0

     total cpu time spent up to now is       10.3 secs

     total energy              =    -844.12918623 Ry
     Harris-Foulkes estimate   =    -846.75064717 Ry
     estimated scf accuracy    <       6.71005566 Ry

     iteration #  2     ecut=    45.00 Ry     beta= 0.70
     Davidson diagonalization with overlap
     ethr =  3.11E-03,  avg # of iterations =  2.2

     total cpu time spent up to now is       15.8 secs

     total energy              =    -845.36276662 Ry
     Harris-Foulkes estimate   =    -845.53841894 Ry
     estimated scf accuracy    <       0.93019493 Ry

     iteration #  3     ecut=    45.00 Ry     beta= 0.70
     Davidson diagonalization with overlap
     ethr =  4.31E-04,  avg # of iterations =  2.0

     total cpu time spent up to now is       20.7 secs

     total energy              =    -845.37021499 Ry
     Harris-Foulkes estimate   =    -845.44311983 Ry
     estimated scf accuracy    <       0.20928117 Ry

     iteration #  4     ecut=    45.00 Ry     beta= 0.70
     Davidson diagonalization with overlap
     ethr =  9.69E-05,  avg # of iterations =  3.2

     total cpu time spent up to now is       27.5 secs

     total energy              =    -845.42097019 Ry
     Harris-Foulkes estimate   =    -845.45094652 Ry
     estimated scf accuracy    <       0.12034429 Ry

     iteration #  5     ecut=    45.00 Ry     beta= 0.70
     Davidson diagonalization with overlap
     ethr =  5.57E-05,  avg # of iterations =  4.2

     total cpu time spent up to now is       33.5 secs

     total energy              =    -845.43004285 Ry
     Harris-Foulkes estimate   =    -845.43244544 Ry
     estimated scf accuracy    <       0.00665509 Ry

     iteration #  6     ecut=    45.00 Ry     beta= 0.70
     Davidson diagonalization with overlap
     ethr =  3.08E-06,  avg # of iterations =  7.0

     total cpu time spent up to now is       43.9 secs

     total energy              =    -845.43293258 Ry
     Harris-Foulkes estimate   =    -845.43543455 Ry
     estimated scf accuracy    <       0.01300932 Ry

     iteration #  7     ecut=    45.00 Ry     beta= 0.70
     Davidson diagonalization with overlap
     ethr =  3.08E-06,  avg # of iterations =  2.0

     total cpu time spent up to now is       48.9 secs

     total energy              =    -845.43357931 Ry
     Harris-Foulkes estimate   =    -845.43372014 Ry
     estimated scf accuracy    <       0.00180387 Ry

     iteration #  8     ecut=    45.00 Ry     beta= 0.70
     Davidson diagonalization with overlap
     ethr =  8.35E-07,  avg # of iterations =  2.2

     total cpu time spent up to now is       53.9 secs

     total energy              =    -845.43344417 Ry
     Harris-Foulkes estimate   =    -845.43368498 Ry
     estimated scf accuracy    <       0.00095068 Ry

     iteration #  9     ecut=    45.00 Ry     beta= 0.70
     Davidson diagonalization with overlap
     ethr =  4.40E-07,  avg # of iterations =  6.0

     total cpu time spent up to now is       61.6 secs

     total energy              =    -845.43368300 Ry
     Harris-Foulkes estimate   =    -845.43366134 Ry
     estimated scf accuracy    <       0.00019695 Ry

     iteration # 10     ecut=    45.00 Ry     beta= 0.70
     Davidson diagonalization with overlap
     ethr =  9.12E-08,  avg # of iterations =  3.2

     total cpu time spent up to now is       67.3 secs

     total energy              =    -845.43369112 Ry
     Harris-Foulkes estimate   =    -845.43371629 Ry
     estimated scf accuracy    <       0.00051467 Ry

     iteration # 11     ecut=    45.00 Ry     beta= 0.70
     Davidson diagonalization with overlap
     ethr =  9.12E-08,  avg # of iterations =  1.0

     total cpu time spent up to now is       71.7 secs

     total energy              =    -845.43357269 Ry
     Harris-Foulkes estimate   =    -845.43369400 Ry
     estimated scf accuracy    <       0.00041406 Ry

     iteration # 12     ecut=    45.00 Ry     beta= 0.70
     Davidson diagonalization with overlap
     ethr =  9.12E-08,  avg # of iterations =  3.0

     total cpu time spent up to now is       77.9 secs

     total energy              =    -845.43363544 Ry
     Harris-Foulkes estimate   =    -845.43364380 Ry
     estimated scf accuracy    <       0.00004710 Ry

     iteration # 13     ecut=    45.00 Ry     beta= 0.70
     Davidson diagonalization with overlap
     ethr =  2.18E-08,  avg # of iterations =  2.0

     total cpu time spent up to now is       82.7 secs

     total energy              =    -845.43363807 Ry
     Harris-Foulkes estimate   =    -845.43363903 Ry
     estimated scf accuracy    <       0.00000746 Ry

     iteration # 14     ecut=    45.00 Ry     beta= 0.70
     Davidson diagonalization with overlap
     ethr =  3.45E-09,  avg # of iterations =  3.2

     total cpu time spent up to now is       88.4 secs

     total energy              =    -845.43363899 Ry
     Harris-Foulkes estimate   =    -845.43363921 Ry
     estimated scf accuracy    <       0.00000152 Ry

     iteration # 15     ecut=    45.00 Ry     beta= 0.70
     Davidson diagonalization with overlap
     ethr =  7.02E-10,  avg # of iterations =  2.0

     total cpu time spent up to now is       93.2 secs

     End of self-consistent calculation

          k = 0.0000 0.0000 0.0000 ( 27203 PWs)   bands (ev):

    -8.5998  -8.4237  -8.3466  -7.4860  -7.1954  -7.1794  -6.8966  -6.8527
    -6.8492  -6.7619  -6.7085  -6.7027  -6.6676  -6.6441  -6.5833  -6.5228
    -6.4985  -6.4859  -6.4848  -6.4214  -6.3851  -6.3635  -6.3243  -6.2725
    -0.3150  -0.2461  -0.2010  -0.1667  -0.1402  -0.1268  -0.0338  -0.0261
     0.0282   0.0559   0.1710   0.2885   0.5952   0.7137   0.7350   0.7787
     0.7956   0.8934   0.9361   0.9561   0.9742   1.2947   1.4743   1.5089
     1.5457   1.5872   1.5941   1.6386   1.7263   1.7457   2.2804   2.3327
     2.3894   2.4189   2.4671   2.4716   2.4850   2.5366   2.6163   2.8597
     2.9188   2.9452   2.9766   3.0467   3.0737   3.1250   3.1885   3.5020
     3.5564   3.6043   3.6566   3.6833   3.7328   3.7874   3.8257   3.9412
     4.0369   4.0595   4.0618   4.1528   4.1901   4.2342   4.4300   4.4549
     4.5096   4.5618   4.5800   4.6388   4.6765   4.7097   4.7200   4.7789
     4.8018   4.8472   4.9003   4.9151   4.9278   4.9357   5.0192   5.0260
     5.0943   5.3768   5.6223   5.8925   7.4355   7.4604   7.4711   7.4749
     7.5394   7.5550   7.5741   7.5764   7.6162   7.8641   7.9098   7.9612
     7.9764   7.9850   8.0161   8.0356   8.0784   8.0824   8.0970   8.1264
     8.1338   8.2011

          k = 0.0000 0.3849 0.0000 ( 27224 PWs)   bands (ev):

    -8.2336  -8.0686  -7.9845  -7.3617  -7.3036  -7.2414  -7.1495  -7.0232
    -7.0113  -6.9043  -6.8620  -6.8072  -6.7496  -6.7153  -6.6946  -6.6394
    -6.6367  -6.5786  -6.5321  -6.5059  -6.3925  -6.3686  -6.3326  -6.2775
     0.0748   0.1803   0.2298   0.2974   0.3454   0.3788   0.4194   0.4648
     0.4902   0.5304   0.6274   0.6542   0.6715   0.7048   0.7566   0.8317
     0.8646   0.8886   1.2024   1.3961   1.4551   1.5385   1.6584   1.7045
     1.7233   1.7757   1.7861   1.8485   1.9064   1.9204   2.0951   2.1796
     2.2044   2.2925   2.3098   2.4317   2.4721   2.4787   2.5292   2.5603
     2.6620   2.7660   2.7844   2.9077   2.9380   3.0394   3.1028   3.1884
     3.2664   3.2842   3.3163   3.3451   3.3563   3.4696   3.5182   3.5911
     3.6432   3.7192   3.7428   3.7556   3.8410   3.8673   3.8958   3.9587
     4.0073   4.0227   4.1530   4.2123   4.2425   4.3456   4.4693   4.5086
     4.5958   4.6182   4.7599   4.8994   4.9306   5.1093   5.1221   5.1647
     5.2192   5.2253   5.2909   5.3224   7.3173   7.3425   7.4129   7.4680
     7.4923   7.5245   7.5916   7.6225   7.6293   7.6720   7.6960   7.6984
     7.7794   7.8209   7.8598   7.9326   7.9485   7.9790   7.9945   8.0239
     8.0804   8.0899

          k = 0.3333 0.5774 0.0000 ( 27249 PWs)   bands (ev):

    -7.6748  -7.6386  -7.5694  -7.5249  -7.4444  -7.4402  -7.4096  -7.3737
    -7.2675  -7.0069  -6.9752  -6.9093  -6.7549  -6.7440  -6.7385  -6.7157
    -6.6801  -6.6687  -6.5463  -6.4943  -6.3541  -6.3512  -6.2531  -6.1723
     0.2274   0.2618   0.3994   0.4166   0.4448   0.5419   0.7714   0.7930
     0.8149   0.8331   0.8944   0.9643   0.9738   1.0263   1.1676   1.4107
     1.4490   1.4882   1.5080   1.5637   1.6504   1.7196   1.7714   1.7781
     1.8241   1.8623   1.8845   1.8902   1.9107   1.9259   1.9642   2.0208
     2.0276   2.0383   2.0778   2.1031   2.1110   2.1297   2.1897   2.2812
     2.3446   2.3838   2.5079   2.5355   2.5491   2.5764   2.5859   2.5994
     2.6281   2.7244   2.7809   3.2440   3.4266   3.4544   3.4814   3.5275
     3.5991   3.6256   3.6623   3.6651   3.6968   3.7629   3.7969   4.1196
     4.1957   4.3074   4.4054   4.4219   4.4995   4.5590   4.5726   4.6012
     4.6478   4.7488   4.7630   4.8012   4.8086   4.8186   4.8602   4.8664
     4.9573   5.4646   5.5041   5.5961   6.9333   6.9736   7.0717   7.1090
     7.1668   7.1866   7.3478   7.3759   7.3950   7.4350   7.4600   7.5185
     7.6819   7.7305   7.7602   7.8184   7.8768   7.8821   7.9085   7.9303
     7.9534   8.0696

          k =-0.3333 0.1925 0.0000 ( 27224 PWs)   bands (ev):

    -8.2384  -8.0687  -7.9882  -7.3935  -7.2923  -7.2553  -7.1508  -7.0128
    -7.0051  -6.8786  -6.8670  -6.7951  -6.7376  -6.7200  -6.6997  -6.6108
    -6.6028  -6.5334  -6.5312  -6.4963  -6.4479  -6.3961  -6.3648  -6.2953
     0.0745   0.2063   0.2269   0.2791   0.3300   0.3381   0.4189   0.4940
     0.4972   0.5113   0.6231   0.6625   0.6899   0.7165   0.7449   0.7833
     0.8931   0.9408   1.1513   1.4928   1.5492   1.5777   1.6603   1.6945
     1.7330   1.7513   1.7641   1.8304   1.8978   1.9299   2.0830   2.1823
     2.2202   2.2992   2.3156   2.4153   2.4441   2.4574   2.5240   2.5409
     2.6751   2.7405   2.7943   2.8711   2.9665   3.0440   3.1084   3.1794
     3.2611   3.2653   3.3183   3.3662   3.4121   3.4131   3.4944   3.5461
     3.6218   3.6497   3.6576   3.7708   3.8187   3.8463   3.8912   3.9370
     3.9880   4.0301   4.1516   4.2574   4.3112   4.3434   4.4920   4.5548
     4.6544   4.7038   4.8341   4.9194   4.9970   5.0344   5.1173   5.1265
     5.2019   5.2327   5.3335   5.4059   7.2575   7.3522   7.3620   7.4279
     7.4637   7.5506   7.5726   7.6099   7.6177   7.6629   7.6852   7.7261
     7.7673   7.7778   7.8160   7.9002   7.9299   7.9613   7.9894   7.9993
     8.0158   8.0413

          k = 0.3333 0.1925 0.0000 ( 27224 PWs)   bands (ev):

    -8.2347  -8.0705  -7.9876  -7.3704  -7.2859  -7.2382  -7.1512  -7.0203
    -7.0100  -6.9020  -6.8862  -6.8153  -6.7532  -6.7085  -6.6976  -6.6341
    -6.6128  -6.5693  -6.5327  -6.5106  -6.3972  -6.3605  -6.3346  -6.2969
     0.0737   0.1911   0.2371   0.2844   0.3341   0.3893   0.4330   0.4573
     0.4772   0.5191   0.6275   0.6585   0.6919   0.6987   0.7601   0.8336
     0.8953   0.9249   1.1992   1.3963   1.4683   1.5562   1.6590   1.6944
     1.7222   1.7503   1.7786   1.8441   1.9060   1.9322   2.0911   2.1736
     2.2143   2.2733   2.3176   2.4467   2.4594   2.4725   2.5155   2.5329
     2.6641   2.7529   2.8047   2.8372   2.9530   3.0254   3.0949   3.2092
     3.2563   3.3065   3.3120   3.3610   3.3669   3.4729   3.5361   3.5764
     3.6092   3.6787   3.7218   3.7537   3.8373   3.8707   3.8913   3.9603
     3.9893   4.0343   4.1602   4.1864   4.2560   4.3599   4.4396   4.5241
     4.5896   4.7402   4.8132   4.9267   4.9975   5.0715   5.1071   5.1364
     5.1921   5.2227   5.3112   5.3473   7.3082   7.3431   7.4313   7.4561
     7.5040   7.5377   7.5704   7.6218   7.6267   7.6772   7.6925   7.7197
     7.8052   7.8106   7.8375   7.9175   7.9326   7.9793   8.0030   8.0161
     8.0398   8.0771

     the Fermi energy is     5.6809 ev

!    total energy              =    -845.43363899 Ry
     Harris-Foulkes estimate   =    -845.43363916 Ry
     estimated scf accuracy    <       0.00000021 Ry

     The total energy is the sum of the following terms:

     one-electron contribution =    -423.11700735 Ry
     hartree contribution      =     328.65734079 Ry
     xc contribution           =    -334.11601059 Ry
     ewald contribution        =    -416.88127273 Ry
     smearing contrib. (-TS)   =       0.02331089 Ry

     convergence has been achieved in  15 iterations

     Forces acting on atoms (cartesian axes, Ry/au):

     atom    1 type  1   force =    -0.00080079   -0.02957553    0.08694056
     atom    2 type  1   force =    -0.05625162    0.04784045    0.07256641
     atom    3 type  1   force =     0.01352198   -0.03559005    0.00707250
     atom    4 type  1   force =    -0.02541898   -0.02282221    0.09686207
     atom    5 type  1   force =     0.05526805   -0.02369807    0.03396722
     atom    6 type  1   force =     0.06862378   -0.00348041   -0.05886504
     atom    7 type  1   force =    -0.00484353    0.01407897    0.08399420
     atom    8 type  1   force =     0.00831080   -0.04343074   -0.01627711
     atom    9 type  1   force =     0.01945978    0.01921787   -0.03600850
     atom   10 type  1   force =    -0.02636099   -0.01365413    0.10160458
     atom   11 type  1   force =     0.01442634    0.02463455   -0.08574247
     atom   12 type  1   force =    -0.02511476   -0.04598998   -0.02149280
     atom   13 type  2   force =     0.02645500    0.00863980   -0.06264721
     atom   14 type  2   force =     0.01019802   -0.00452921   -0.04562096
     atom   15 type  2   force =    -0.00122339    0.00563286    0.04078501
     atom   16 type  2   force =    -0.02406165   -0.01109984    0.03926843
     atom   17 type  2   force =     0.01133185    0.04134052   -0.01867957
     atom   18 type  2   force =    -0.02577704   -0.02646969   -0.01493243
     atom   19 type  2   force =     0.00629276   -0.01683397   -0.04576344
     atom   20 type  2   force =     0.00093538   -0.02009513   -0.03195631
     atom   21 type  2   force =     0.02534240    0.01360701    0.03399030
     atom   22 type  2   force =    -0.00672953    0.02403114   -0.02299015
     atom   23 type  2   force =     0.03001285    0.01951660   -0.04445543
     atom   24 type  2   force =    -0.00363710    0.01481539   -0.02830402
     atom   25 type  2   force =    -0.01758387    0.01412662    0.04056645
     atom   26 type  2   force =    -0.03244422    0.00553312    0.01372451
     atom   27 type  2   force =    -0.02065160   -0.00797474    0.00090670
     atom   28 type  2   force =    -0.00626309    0.00321715   -0.06345597
     atom   29 type  2   force =     0.00381928   -0.00436788   -0.04397799
     atom   30 type  2   force =     0.00766155    0.01924588   -0.03225228
     atom   31 type  2   force =    -0.01064350   -0.01732039    0.01258182
     atom   32 type  2   force =    -0.00097283    0.02399246    0.03212993
     atom   33 type  2   force =    -0.01469931   -0.00930546    0.04022342
     atom   34 type  2   force =     0.00442309    0.01287757   -0.03068023
     atom   35 type  2   force =    -0.00604778   -0.00163004   -0.01975762
     atom   36 type  2   force =     0.00344266    0.02551953   -0.01332458

     Total force =     0.349423     Total SCF correction =     0.001202
 
     init_run     :      3.28s CPU      3.41s WALL (       1 calls)
     electrons    :     86.95s CPU     89.04s WALL (       1 calls)
     forces       :      1.89s CPU      1.94s WALL (       1 calls)

     Called by init_run:
     wfcinit      :      2.12s CPU      2.16s WALL (       1 calls)
     potinit      :      0.24s CPU      0.25s WALL (       1 calls)
     hinit0       :      0.34s CPU      0.35s WALL (       1 calls)

     Called by electrons:
     c_bands      :     69.04s CPU     69.84s WALL (      15 calls)
     sum_band     :     13.09s CPU     13.93s WALL (      15 calls)
     v_of_rho     :      0.95s CPU      0.99s WALL (      16 calls)
     newd         :      2.99s CPU      3.42s WALL (      16 calls)
     mix_rho      :      0.98s CPU      0.99s WALL (      15 calls)

     Called by c_bands:
     init_us_2    :      1.86s CPU      1.88s WALL (     160 calls)
     cegterg      :     64.18s CPU     64.95s WALL (      75 calls)

     Called by sum_band:
     sum_band:bec :      0.14s CPU      0.14s WALL (      75 calls)
     addusdens    :      4.73s CPU      5.44s WALL (      15 calls)

     Called by *egterg:
     h_psi        :     33.79s CPU     34.32s WALL (     306 calls)
     s_psi        :      6.68s CPU      6.68s WALL (     306 calls)
     g_psi        :      0.17s CPU      0.17s WALL (     226 calls)
     cdiaghg      :     12.85s CPU     13.04s WALL (     301 calls)

     Called by h_psi:
     h_psi:pot    :     33.41s CPU     33.93s WALL (     306 calls)
     h_psi:calbec :      7.49s CPU      7.62s WALL (     306 calls)
     vloc_psi     :     19.27s CPU     19.65s WALL (     306 calls)
     add_vuspsi   :      6.64s CPU      6.65s WALL (     306 calls)

     General routines
     calbec       :     11.02s CPU     11.22s WALL (     401 calls)
     fft          :      0.75s CPU      0.80s WALL (     217 calls)
     ffts         :      0.41s CPU      0.42s WALL (     467 calls)
     fftw         :     21.27s CPU     21.67s WALL (   59434 calls)
     interpolate  :      0.08s CPU      0.08s WALL (      16 calls)
 
     Parallel routines
     fft_scatt_xy :      2.53s CPU      2.58s WALL (   60118 calls)
     fft_scatt_yz :      9.35s CPU      9.57s WALL (   60118 calls)
 
     PWSCF        :   1m32.84s CPU   1m35.21s WALL

 
   This run was terminated on:   0:16:24  25Dec2021            

=------------------------------------------------------------------------------=
   JOB DONE.
=------------------------------------------------------------------------------=
