
     Program PWSCF v.6.4 starts on 24Dec2021 at  0:30:56 

     This program is part of the open-source Quantum ESPRESSO suite
     for quantum simulation of materials; please cite
         "P. Giannozzi et al., J. Phys.:Condens. Matter 21 395502 (2009);
         "P. Giannozzi et al., J. Phys.:Condens. Matter 29 465901 (2017);
          URL http://www.quantum-espresso.org", 
     in publications or presentations arising from this work. More details at
     http://www.quantum-espresso.org/quote

     Parallel version (MPI), running on    40 processors

     MPI processes distributed on     1 nodes
     R & G space division:  proc/nbgrp/npool/nimage =      40
     Waiting for input...
     Reading input from standard input
Warning: card    &IONS ignored
Warning: card      ION_DYNAMICS = 'BFGS' ignored
Warning: card   / ignored
Warning: card    &CELL ignored
Warning: card      CELL_DYNAMICS = 'BFGS', ignored
Warning: card    / ignored

     Current dimensions of program PWSCF are:
     Max number of different atomic species (ntypx) = 10
     Max number of k-points (npk) =  40000
     Max angular momentum in pseudopotentials (lmaxx) =  3

     Subspace diagonalization in iterative solution of the eigenvalue problem:
     one sub-group per band group will be used
     scalapack distributed-memory algorithm (size of sub-group:  4*  4 procs)

 
     Parallelization info
     --------------------
     sticks:   dense  smooth     PW     G-vecs:    dense   smooth      PW
     Min         211     105     28                15902     5618     785
     Max         212     106     29                15905     5623     789
     Sum        8451    4213   1137               636137   224797   31461
 


     bravais-lattice index     =            0
     lattice parameter (alat)  =      16.3167  a.u.
     unit-cell volume          =    5514.7781 (a.u.)^3
     number of atoms/cell      =           27
     number of atomic types    =            2
     number of electrons       =       162.00
     number of Kohn-Sham states=           97
     kinetic-energy cutoff     =      45.0000  Ry
     charge density cutoff     =     360.0000  Ry
     convergence threshold     =      1.0E-06
     mixing beta               =       0.7000
     number of iterations used =            8  local-TF  mixing
     Exchange-correlation      = SLA PW GGX GGC ( 1  4  2  2 0 0)

     celldm(1)=  16.316733  celldm(2)=   0.000000  celldm(3)=   0.000000
     celldm(4)=   0.000000  celldm(5)=   0.000000  celldm(6)=   0.000000

     crystal axes: (cart. coord. in units of alat)
               a(1) = (   1.000000   0.000000   0.000000 )  
               a(2) = (   0.297673   1.107079   0.000000 )  
               a(3) = (   0.426697  -0.145223   1.146700 )  

     reciprocal axes: (cart. coord. in units 2 pi/alat)
               b(1) = (  1.000000 -0.268882 -0.406161 )  
               b(2) = (  0.000000  0.903278  0.114395 )  
               b(3) = (  0.000000  0.000000  0.872068 )  


     PseudoPot. # 1 for Mo read from file:
     ~/pseudo/Mo.pw91-n-van.UPF
     MD5 check sum: Not computed, couldn't open file
     Pseudo is Ultrasoft + core correction, Zval =  6.0
     Generated by new atomic code, or converted to UPF format
     Using radial grid of  965 points,  3 beta functions with: 
                l(1) =   1
                l(2) =   2
                l(3) =   2
     Q(r) pseudized with  8 coefficients,  rinner =    1.000   1.000   1.000
                                                       1.200   1.200

     PseudoPot. # 2 for S  read from file:
     ~/pseudo/S.pw91-van_ak.UPF
     MD5 check sum: Not computed, couldn't open file
     Pseudo is Ultrasoft, Zval =  6.0
     Generated by new atomic code, or converted to UPF format
     Using radial grid of  811 points,  6 beta functions with: 
                l(1) =   0
                l(2) =   0
                l(3) =   1
                l(4) =   1
                l(5) =   2
                l(6) =   2
     Q(r) pseudized with  8 coefficients,  rinner =    1.100   1.100   1.100
                                                       1.100   1.100

     atomic species   valence    mass     pseudopotential
        Mo             6.00    95.50000     Mo( 1.00)
        S              6.00    32.06500     S ( 1.00)

     No symmetry found



   Cartesian axes

     site n.     atom                  positions (alat units)
         1           Mo  tau(   1) = (   0.6544082   0.2017742   0.5294009  )
         2           Mo  tau(   2) = (   0.6614252   0.3047482   0.8376373  )
         3           Mo  tau(   3) = (   1.1307410   0.4894258   0.0167918  )
         4           Mo  tau(   4) = (   0.4294902  -0.0015859   0.3650647  )
         5           Mo  tau(   5) = (   1.0044086   0.4990224   0.3124027  )
         6           Mo  tau(   6) = (   0.2525429   0.2557406   0.2053054  )
         7           Mo  tau(   7) = (   0.8983495   0.9739704   0.6352173  )
         8           Mo  tau(   8) = (   0.8515443   0.7872886   0.3622900  )
         9           Mo  tau(   9) = (   0.7964304   0.5224801   0.5885937  )
        10           S   tau(  10) = (   0.9783125   0.2910847   0.1230304  )
        11           S   tau(  11) = (   1.0382091   0.7365550   0.1303744  )
        12           S   tau(  12) = (   0.9179975   0.8618509   0.8918660  )
        13           S   tau(  13) = (   0.4167147   0.0630157   0.6323244  )
        14           S   tau(  14) = (   0.5323885   0.2275187   0.2635436  )
        15           S   tau(  15) = (   0.5341209   0.4349255   0.6140998  )
        16           S   tau(  16) = (   1.0462229   0.6805750   0.5576579  )
        17           S   tau(  17) = (   1.0196385   1.0249453   0.3813595  )
        18           S   tau(  18) = (   0.7598460   0.1718164   1.0915153  )
        19           S   tau(  19) = (   0.9343202   0.2908324   0.4945194  )
        20           S   tau(  20) = (   0.2878858   0.5207186   0.2780760  )
        21           S   tau(  21) = (   0.6793424   0.7884330   0.5916504  )
        22           S   tau(  22) = (   0.7773598   0.0657493   0.7398403  )
        23           S   tau(  23) = (   0.1555165   0.0303278   0.3390455  )
        24           S   tau(  24) = (   0.7203714   0.5421652   0.2949020  )
        25           S   tau(  25) = (   1.4076720   0.3463591   0.9379552  )
        26           S   tau(  26) = (   0.6886843   0.9073465   0.1729099  )
        27           S   tau(  27) = (   0.8734153   0.4749654   0.8556777  )

     number of k points=     8  Marzari-Vanderbilt smearing, width (Ry)=  0.0200
                       cart. coord. in units 2pi/alat
        k(    1) = (   0.0000000   0.0000000   0.0000000), wk =   0.2500000
        k(    2) = (   0.0000000   0.0000000  -0.4360338), wk =   0.2500000
        k(    3) = (   0.0000000  -0.4516390  -0.0571976), wk =   0.2500000
        k(    4) = (   0.0000000  -0.4516390  -0.4932314), wk =   0.2500000
        k(    5) = (  -0.5000000   0.1344409   0.2030805), wk =   0.2500000
        k(    6) = (  -0.5000000   0.1344409  -0.2329532), wk =   0.2500000
        k(    7) = (  -0.5000000  -0.3171981   0.1458829), wk =   0.2500000
        k(    8) = (  -0.5000000  -0.3171981  -0.2901509), wk =   0.2500000

     Dense  grid:   636137 G-vectors     FFT dimensions: ( 100, 120, 125)

     Smooth grid:   224797 G-vectors     FFT dimensions: (  72,  80,  90)

     Estimated max dynamical RAM per process >      96.83 MB

     Estimated total dynamical RAM >       3.78 GB

     Initial potential from superposition of free atoms

     starting charge  161.98581, renormalised to  162.00000
     Starting wfcs are  153 randomized atomic wfcs

     total cpu time spent up to now is        4.7 secs

     Self-consistent Calculation

     iteration #  1     ecut=    45.00 Ry     beta= 0.70
     Davidson diagonalization with overlap
     ethr =  1.00E-02,  avg # of iterations =  2.0

     total cpu time spent up to now is       11.0 secs

     total energy              =    -631.86248195 Ry
     Harris-Foulkes estimate   =    -634.37893936 Ry
     estimated scf accuracy    <       6.84536248 Ry

     iteration #  2     ecut=    45.00 Ry     beta= 0.70
     Davidson diagonalization with overlap
     ethr =  4.23E-03,  avg # of iterations =  2.0

     total cpu time spent up to now is       17.0 secs

     total energy              =    -632.88201394 Ry
     Harris-Foulkes estimate   =    -633.41956802 Ry
     estimated scf accuracy    <       3.11128185 Ry

     iteration #  3     ecut=    45.00 Ry     beta= 0.70
     Davidson diagonalization with overlap
     ethr =  1.92E-03,  avg # of iterations =  1.0

     total cpu time spent up to now is       21.8 secs

     total energy              =    -633.14643142 Ry
     Harris-Foulkes estimate   =    -633.19748184 Ry
     estimated scf accuracy    <       0.34571639 Ry

     iteration #  4     ecut=    45.00 Ry     beta= 0.70
     Davidson diagonalization with overlap
     ethr =  2.13E-04,  avg # of iterations =  2.9

     total cpu time spent up to now is       27.4 secs

     total energy              =    -633.16122908 Ry
     Harris-Foulkes estimate   =    -633.18678114 Ry
     estimated scf accuracy    <       0.07411643 Ry

     iteration #  5     ecut=    45.00 Ry     beta= 0.70
     Davidson diagonalization with overlap
     ethr =  4.58E-05,  avg # of iterations =  5.9

     total cpu time spent up to now is       35.4 secs

     total energy              =    -633.17623767 Ry
     Harris-Foulkes estimate   =    -633.18439264 Ry
     estimated scf accuracy    <       0.08189010 Ry

     iteration #  6     ecut=    45.00 Ry     beta= 0.70
     Davidson diagonalization with overlap
     ethr =  4.58E-05,  avg # of iterations =  1.1

     total cpu time spent up to now is       40.2 secs

     total energy              =    -633.17767956 Ry
     Harris-Foulkes estimate   =    -633.18007080 Ry
     estimated scf accuracy    <       0.01832904 Ry

     iteration #  7     ecut=    45.00 Ry     beta= 0.70
     Davidson diagonalization with overlap
     ethr =  1.13E-05,  avg # of iterations =  6.9

     total cpu time spent up to now is       47.1 secs

     total energy              =    -633.17840559 Ry
     Harris-Foulkes estimate   =    -633.17895830 Ry
     estimated scf accuracy    <       0.00184204 Ry

     iteration #  8     ecut=    45.00 Ry     beta= 0.70
     Davidson diagonalization with overlap
     ethr =  1.14E-06,  avg # of iterations =  6.5

     total cpu time spent up to now is       55.5 secs

     total energy              =    -633.17847500 Ry
     Harris-Foulkes estimate   =    -633.17889997 Ry
     estimated scf accuracy    <       0.00137591 Ry

     iteration #  9     ecut=    45.00 Ry     beta= 0.70
     Davidson diagonalization with overlap
     ethr =  8.49E-07,  avg # of iterations =  1.5

     total cpu time spent up to now is       60.5 secs

     total energy              =    -633.17854410 Ry
     Harris-Foulkes estimate   =    -633.17861849 Ry
     estimated scf accuracy    <       0.00024030 Ry

     iteration # 10     ecut=    45.00 Ry     beta= 0.70
     Davidson diagonalization with overlap
     ethr =  1.48E-07,  avg # of iterations =  3.4

     total cpu time spent up to now is       66.6 secs

     total energy              =    -633.17855983 Ry
     Harris-Foulkes estimate   =    -633.17859015 Ry
     estimated scf accuracy    <       0.00021165 Ry

     iteration # 11     ecut=    45.00 Ry     beta= 0.70
     Davidson diagonalization with overlap
     ethr =  1.31E-07,  avg # of iterations =  1.0

     total cpu time spent up to now is       71.4 secs

     total energy              =    -633.17856455 Ry
     Harris-Foulkes estimate   =    -633.17857074 Ry
     estimated scf accuracy    <       0.00004537 Ry

     iteration # 12     ecut=    45.00 Ry     beta= 0.70
     Davidson diagonalization with overlap
     ethr =  2.80E-08,  avg # of iterations =  3.1

     total cpu time spent up to now is       77.1 secs

     total energy              =    -633.17856629 Ry
     Harris-Foulkes estimate   =    -633.17856935 Ry
     estimated scf accuracy    <       0.00001780 Ry

     iteration # 13     ecut=    45.00 Ry     beta= 0.70
     Davidson diagonalization with overlap
     ethr =  1.10E-08,  avg # of iterations =  3.0

     total cpu time spent up to now is       84.4 secs

     total energy              =    -633.17856846 Ry
     Harris-Foulkes estimate   =    -633.17857000 Ry
     estimated scf accuracy    <       0.00000891 Ry

     iteration # 14     ecut=    45.00 Ry     beta= 0.70
     Davidson diagonalization with overlap
     ethr =  5.50E-09,  avg # of iterations =  1.4

     total cpu time spent up to now is       89.6 secs

     End of self-consistent calculation

          k = 0.0000 0.0000 0.0000 ( 28115 PWs)   bands (ev):

   -11.0062 -10.4634 -10.2735 -10.1986 -10.1415 -10.1238  -9.9703  -9.8904
    -9.7727  -9.6939  -9.6066  -9.5326  -9.4782  -9.4406  -9.3785  -9.2934
    -9.0238  -8.2244  -2.8409  -2.8093  -2.5993  -2.4683  -2.3327  -2.2152
    -2.0557  -1.9863  -1.9518  -1.8197  -1.8102  -1.6931  -1.6702  -1.5176
    -1.4739  -1.4356  -1.2975  -1.2584  -1.1745  -1.1280  -1.0503  -0.9914
    -0.9139  -0.8642  -0.8017  -0.7902  -0.6632  -0.5931  -0.5614  -0.4748
    -0.4066  -0.3806  -0.3236  -0.2299  -0.1874  -0.0417   0.0022   0.0827
     0.2010   0.2945   0.4305   0.5362   0.6219   0.7356   0.7569   0.8271
     0.8998   1.0394   1.2309   1.3161   1.4436   1.5783   1.6157   1.7360
     1.8222   1.9062   2.0418   2.2244   2.3562   2.4703   2.6128   2.7313
     2.8627   2.9409   2.9629   3.0131   3.2119   3.2859   3.3798   3.4482
     3.6615   3.9096   3.9620   4.0118   4.1779   4.2452   4.3510   4.4863
     4.5947

          k = 0.0000 0.0000-0.4360 ( 28102 PWs)   bands (ev):

   -10.9532 -10.5877 -10.3212 -10.1888 -10.1383 -10.0819  -9.9098  -9.8357
    -9.7772  -9.7166  -9.5903  -9.5198  -9.4873  -9.4272  -9.4008  -9.3264
    -9.0258  -8.2222  -2.8672  -2.6960  -2.5508  -2.4454  -2.3501  -2.2697
    -2.2308  -2.1500  -1.9089  -1.8241  -1.7587  -1.6948  -1.6000  -1.5210
    -1.4969  -1.4006  -1.3751  -1.2330  -1.1492  -1.0952  -1.0922  -0.9925
    -0.9508  -0.8898  -0.8350  -0.6863  -0.6571  -0.6069  -0.4930  -0.4308
    -0.3779  -0.2939  -0.2691  -0.2321  -0.1708  -0.1013   0.0062   0.0609
     0.2014   0.3719   0.4392   0.4935   0.5206   0.6894   0.8163   0.8756
     1.0517   1.1120   1.1429   1.2534   1.3985   1.5195   1.5634   1.7004
     1.8222   2.0091   2.0360   2.2234   2.2633   2.4432   2.5852   2.6961
     2.7701   2.8530   2.9480   3.0488   3.2582   3.3700   3.4857   3.5351
     3.6164   3.7704   3.9010   3.9809   4.1980   4.3190   4.4424   4.5119
     4.5328

          k = 0.0000-0.4516-0.0572 ( 28128 PWs)   bands (ev):

   -10.8992 -10.6351 -10.3347 -10.2019 -10.1513 -10.0487 -10.0137  -9.8319
    -9.7864  -9.6239  -9.6025  -9.5624  -9.4981  -9.4275  -9.3046  -9.2469
    -9.1128  -8.2228  -2.7897  -2.7529  -2.6574  -2.4706  -2.4237  -2.2171
    -2.1175  -2.0351  -1.8792  -1.8365  -1.7596  -1.6745  -1.6500  -1.5996
    -1.5161  -1.4459  -1.3471  -1.2864  -1.1833  -1.1360  -1.0424  -0.9535
    -0.9298  -0.8243  -0.7955  -0.7312  -0.6627  -0.6389  -0.6261  -0.4779
    -0.3837  -0.3063  -0.2028  -0.1906  -0.1341  -0.0127   0.0858   0.1193
     0.1954   0.2553   0.3802   0.5509   0.5933   0.6271   0.7956   0.8524
     0.9124   1.0211   1.1499   1.1972   1.4673   1.5683   1.6921   1.7644
     1.7858   2.0387   2.1797   2.2184   2.3353   2.4341   2.6608   2.6917
     2.7160   2.8998   2.9583   3.0688   3.1926   3.2989   3.3746   3.5399
     3.6389   3.8118   3.9627   4.0033   4.2124   4.2368   4.3577   4.4298
     4.4866

          k = 0.0000-0.4516-0.4932 ( 28124 PWs)   bands (ev):

   -10.8362 -10.6388 -10.4948 -10.2142 -10.1830 -10.0063  -9.8971  -9.8261
    -9.7703  -9.6443  -9.5944  -9.5497  -9.4560  -9.4483  -9.3568  -9.2515
    -9.1125  -8.2211  -2.7809  -2.7015  -2.6566  -2.5193  -2.4261  -2.3087
    -2.1828  -2.0400  -1.8657  -1.8332  -1.7448  -1.6261  -1.5990  -1.5163
    -1.4842  -1.4428  -1.3687  -1.2776  -1.2703  -1.1557  -1.1153  -1.0121
    -0.9465  -0.8438  -0.7483  -0.7368  -0.6703  -0.6252  -0.5192  -0.4499
    -0.4023  -0.2557  -0.2060  -0.1338  -0.0665  -0.0472   0.0098   0.0549
     0.2363   0.3268   0.3577   0.4503   0.6458   0.7495   0.8115   0.8589
     0.9136   1.0253   1.1936   1.2551   1.3925   1.4315   1.5639   1.7749
     1.8763   1.9937   2.1769   2.2564   2.3628   2.4260   2.5706   2.6801
     2.7314   2.8113   3.0127   3.1008   3.1744   3.3246   3.4145   3.4819
     3.5387   3.8622   3.9671   4.0082   4.1194   4.2581   4.3789   4.4511
     4.5252

          k =-0.5000 0.1344 0.2031 ( 28056 PWs)   bands (ev):

   -10.9267 -10.5554 -10.3306 -10.2504 -10.1820 -10.0387  -9.8991  -9.8824
    -9.7659  -9.6911  -9.5703  -9.5568  -9.4698  -9.4573  -9.3615  -9.2526
    -9.1212  -8.2243  -2.6954  -2.6876  -2.4765  -2.4156  -2.3437  -2.2715
    -2.1940  -2.0911  -1.9595  -1.8788  -1.7578  -1.7027  -1.5975  -1.4896
    -1.4795  -1.4345  -1.3250  -1.2446  -1.2047  -1.1499  -1.0735  -1.0483
    -0.9882  -0.8995  -0.8132  -0.6710  -0.6141  -0.5631  -0.5200  -0.4473
    -0.4128  -0.3163  -0.2661  -0.2385  -0.1142  -0.0908   0.0203   0.0845
     0.1924   0.2764   0.3562   0.4731   0.5597   0.6166   0.7147   0.8263
     0.8674   1.0704   1.1246   1.2421   1.4198   1.4529   1.6576   1.6966
     1.9755   1.9849   2.1165   2.1723   2.2984   2.5357   2.5883   2.6748
     2.7715   2.9067   3.0018   3.0194   3.1914   3.2444   3.4517   3.5109
     3.5842   3.7231   3.9366   3.9850   4.0574   4.3880   4.4109   4.4647
     4.5333

          k =-0.5000 0.1344-0.2330 ( 28084 PWs)   bands (ev):

   -10.9217 -10.5658 -10.3251 -10.2355 -10.1511 -10.0546  -9.9621  -9.8684
    -9.7706  -9.6747  -9.6101  -9.5615  -9.4757  -9.4492  -9.3160  -9.2465
    -9.1208  -8.2223  -2.8122  -2.5720  -2.4611  -2.4012  -2.3883  -2.2707
    -2.1663  -2.0947  -1.9989  -1.8648  -1.8002  -1.7211  -1.6219  -1.5150
    -1.4362  -1.3948  -1.2846  -1.2395  -1.2041  -1.0941  -1.0299  -1.0106
    -0.9294  -0.8781  -0.8091  -0.7254  -0.7026  -0.6373  -0.5490  -0.4897
    -0.4614  -0.4178  -0.2710  -0.1807  -0.1778  -0.0723  -0.0305   0.0775
     0.1388   0.3545   0.4075   0.5489   0.5996   0.6536   0.7475   0.8776
     0.9735   1.0173   1.1818   1.2576   1.4804   1.5151   1.5755   1.7902
     1.8328   1.9757   2.0487   2.2029   2.2780   2.5046   2.5410   2.6808
     2.7758   2.8572   2.9562   3.0407   3.1156   3.2601   3.4020   3.4256
     3.5311   3.8346   3.9931   4.0826   4.1229   4.3430   4.3863   4.4724
     4.5613

          k =-0.5000-0.3172 0.1459 ( 28124 PWs)   bands (ev):

   -10.8537 -10.5814 -10.4574 -10.2250 -10.1562 -10.0845  -9.9392  -9.8074
    -9.7673  -9.6324  -9.5846  -9.5365  -9.4835  -9.4442  -9.3968  -9.3228
    -9.0276  -8.2227  -2.8741  -2.6475  -2.5809  -2.4246  -2.2587  -2.2237
    -2.1259  -1.9815  -1.9080  -1.8459  -1.8316  -1.7372  -1.5823  -1.5678
    -1.4234  -1.4077  -1.3656  -1.3224  -1.2082  -1.1193  -1.0609  -1.0016
    -0.9728  -0.8914  -0.8327  -0.7379  -0.6378  -0.5760  -0.5055  -0.4595
    -0.3802  -0.3310  -0.2610  -0.2178  -0.1311  -0.0874  -0.0094   0.0356
     0.1700   0.2916   0.3353   0.4638   0.5661   0.6604   0.7439   0.8522
     0.8792   1.1040   1.1194   1.3281   1.4421   1.4786   1.6441   1.7927
     1.8640   1.9538   2.0648   2.2397   2.3679   2.5209   2.5367   2.6867
     2.7629   2.9017   2.9336   3.0330   3.2149   3.3048   3.3433   3.5011
     3.6898   3.7986   3.9313   3.9761   4.0876   4.2347   4.3319   4.4610
     4.5359

          k =-0.5000-0.3172-0.2902 ( 28064 PWs)   bands (ev):

   -10.8111 -10.6681 -10.4257 -10.2055 -10.1630 -10.0639  -9.9166  -9.8561
    -9.7640  -9.6346  -9.6117  -9.5361  -9.5016  -9.4630  -9.3533  -9.2980
    -9.0259  -8.2212  -2.8017  -2.7016  -2.5327  -2.4426  -2.3273  -2.2949
    -2.1028  -2.0094  -1.8601  -1.8461  -1.8034  -1.7336  -1.6579  -1.5720
    -1.4657  -1.4533  -1.2945  -1.2215  -1.1922  -1.1370  -1.1016  -1.0657
    -0.9028  -0.8374  -0.8095  -0.6664  -0.6509  -0.5784  -0.5559  -0.5123
    -0.4496  -0.3340  -0.2266  -0.1941  -0.1352  -0.1045   0.0041   0.0792
     0.1203   0.2328   0.3168   0.4366   0.6165   0.6318   0.8199   0.9014
     0.9311   1.1488   1.2770   1.3425   1.4531   1.5013   1.6177   1.6871
     1.8918   1.9270   2.0003   2.2013   2.3398   2.4393   2.5080   2.6475
     2.8168   2.8927   2.9453   3.0611   3.1847   3.2713   3.3542   3.4668
     3.5910   3.8267   3.9643   4.0342   4.1358   4.2455   4.3989   4.4257
     4.5280

     the Fermi energy is     2.8319 ev

!    total energy              =    -633.17856876 Ry
     Harris-Foulkes estimate   =    -633.17856920 Ry
     estimated scf accuracy    <       0.00000077 Ry

     The total energy is the sum of the following terms:

     one-electron contribution =    -397.32239551 Ry
     hartree contribution      =     268.43252743 Ry
     xc contribution           =    -249.18444937 Ry
     ewald contribution        =    -255.09931980 Ry
     smearing contrib. (-TS)   =      -0.00493151 Ry

     convergence has been achieved in  14 iterations

     Forces acting on atoms (cartesian axes, Ry/au):

     atom    1 type  1   force =     0.01428328   -0.02170935    0.01263813
     atom    2 type  1   force =     0.02874382    0.01066435   -0.03676325
     atom    3 type  1   force =    -0.03323847    0.03150743    0.01722190
     atom    4 type  1   force =    -0.01449696    0.01495192   -0.06181468
     atom    5 type  1   force =     0.01519132   -0.00336140    0.01876055
     atom    6 type  1   force =    -0.00575089    0.01457394    0.01614167
     atom    7 type  1   force =     0.00991511   -0.06503344    0.06217118
     atom    8 type  1   force =    -0.02687437    0.02052382    0.03803140
     atom    9 type  1   force =     0.00426649   -0.06121663   -0.01997195
     atom   10 type  2   force =     0.00914671   -0.00299780    0.00554682
     atom   11 type  2   force =     0.00036313   -0.04921217   -0.00442521
     atom   12 type  2   force =    -0.00433226    0.02911867   -0.07321387
     atom   13 type  2   force =    -0.02432185    0.01541920    0.01068110
     atom   14 type  2   force =    -0.00440348   -0.01391883   -0.00160083
     atom   15 type  2   force =    -0.00437117   -0.01608620    0.01415334
     atom   16 type  2   force =    -0.01983659   -0.02236252   -0.02915022
     atom   17 type  2   force =    -0.00661334    0.01298592    0.02488449
     atom   18 type  2   force =     0.00565511   -0.00120924   -0.00358684
     atom   19 type  2   force =    -0.01877465    0.01416740    0.00000110
     atom   20 type  2   force =    -0.01080195   -0.01990626   -0.00166223
     atom   21 type  2   force =     0.01417141    0.00958738   -0.01758730
     atom   22 type  2   force =     0.00719164    0.03833503    0.00775740
     atom   23 type  2   force =     0.02370008    0.02516490   -0.01126134
     atom   24 type  2   force =     0.03418954    0.01900299    0.01048756
     atom   25 type  2   force =     0.02311262    0.01296232    0.00512069
     atom   26 type  2   force =     0.01472660    0.00990582    0.02862487
     atom   27 type  2   force =    -0.03084087   -0.00185727   -0.01118448

     Total force =     0.219157     Total SCF correction =     0.001364
 
     init_run     :      3.80s CPU      3.92s WALL (       1 calls)
     electrons    :     83.09s CPU     84.95s WALL (       1 calls)
     forces       :      2.01s CPU      2.06s WALL (       1 calls)

     Called by init_run:
     wfcinit      :      2.28s CPU      2.34s WALL (       1 calls)
     potinit      :      0.42s CPU      0.43s WALL (       1 calls)
     hinit0       :      0.56s CPU      0.58s WALL (       1 calls)

     Called by electrons:
     c_bands      :     65.47s CPU     66.32s WALL (      14 calls)
     sum_band     :     12.57s CPU     13.25s WALL (      14 calls)
     v_of_rho     :      0.98s CPU      1.03s WALL (      15 calls)
     newd         :      2.94s CPU      3.17s WALL (      15 calls)
     mix_rho      :      1.23s CPU      1.31s WALL (      14 calls)

     Called by c_bands:
     init_us_2    :      1.39s CPU      1.41s WALL (     240 calls)
     cegterg      :     60.39s CPU     61.17s WALL (     112 calls)

     Called by sum_band:
     sum_band:bec :      0.12s CPU      0.12s WALL (     112 calls)
     addusdens    :      3.89s CPU      4.38s WALL (      14 calls)

     Called by *egterg:
     h_psi        :     35.76s CPU     36.35s WALL (     453 calls)
     s_psi        :      5.29s CPU      5.31s WALL (     453 calls)
     g_psi        :      0.11s CPU      0.12s WALL (     333 calls)
     cdiaghg      :     11.52s CPU     11.68s WALL (     445 calls)

     Called by h_psi:
     h_psi:pot    :     35.51s CPU     36.10s WALL (     453 calls)
     h_psi:calbec :      6.09s CPU      6.23s WALL (     453 calls)
     vloc_psi     :     23.99s CPU     24.42s WALL (     453 calls)
     add_vuspsi   :      5.42s CPU      5.44s WALL (     453 calls)

     General routines
     calbec       :      9.08s CPU      9.30s WALL (     597 calls)
     fft          :      1.01s CPU      1.06s WALL (     204 calls)
     ffts         :      0.62s CPU      0.69s WALL (     590 calls)
     fftw         :     26.77s CPU     27.25s WALL (   63190 calls)
     interpolate  :      0.08s CPU      0.09s WALL (      15 calls)
 
     Parallel routines
     fft_scatt_xy :      2.51s CPU      2.55s WALL (   63984 calls)
     fft_scatt_yz :     12.61s CPU     12.92s WALL (   63984 calls)
 
     PWSCF        :   1m29.65s CPU   1m31.76s WALL

 
   This run was terminated on:   0:32:28  24Dec2021            

=------------------------------------------------------------------------------=
   JOB DONE.
=------------------------------------------------------------------------------=
