
     Program PWSCF v.6.4 starts on 14Oct2021 at  9:58:10 

     This program is part of the open-source Quantum ESPRESSO suite
     for quantum simulation of materials; please cite
         "P. Giannozzi et al., J. Phys.:Condens. Matter 21 395502 (2009);
         "P. Giannozzi et al., J. Phys.:Condens. Matter 29 465901 (2017);
          URL http://www.quantum-espresso.org", 
     in publications or presentations arising from this work. More details at
     http://www.quantum-espresso.org/quote

     Parallel version (MPI), running on    40 processors

     MPI processes distributed on     1 nodes
     R & G space division:  proc/nbgrp/npool/nimage =      40
     Waiting for input...
     Reading input from standard input
Warning: card    &IONS ignored
Warning: card      ION_DYNAMICS = 'BFGS' ignored
Warning: card   / ignored
Warning: card    &CELL ignored
Warning: card      CELL_DYNAMICS = 'BFGS', ignored
Warning: card    / ignored

     Current dimensions of program PWSCF are:
     Max number of different atomic species (ntypx) = 10
     Max number of k-points (npk) =  40000
     Max angular momentum in pseudopotentials (lmaxx) =  3

     Subspace diagonalization in iterative solution of the eigenvalue problem:
     one sub-group per band group will be used
     scalapack distributed-memory algorithm (size of sub-group:  4*  4 procs)

 
     Parallelization info
     --------------------
     sticks:   dense  smooth     PW     G-vecs:    dense   smooth      PW
     Min          93      47     12                24306     8595    1225
     Max          94      48     13                24331     8607    1258
     Sum        3747    1881    511               972729   344075   49865
 


     bravais-lattice index     =            0
     lattice parameter (alat)  =      12.2378  a.u.
     unit-cell volume          =    8434.7549 (a.u.)^3
     number of atoms/cell      =           36
     number of atomic types    =            2
     number of electrons       =       216.00
     number of Kohn-Sham states=          130
     kinetic-energy cutoff     =      45.0000  Ry
     charge density cutoff     =     360.0000  Ry
     convergence threshold     =      1.0E-06
     mixing beta               =       0.7000
     number of iterations used =            8  local-TF  mixing
     Exchange-correlation      = SLA PW GGX GGC ( 1  4  2  2 0 0)

     celldm(1)=  12.237788  celldm(2)=   0.000000  celldm(3)=   0.000000
     celldm(4)=   0.000000  celldm(5)=   0.000000  celldm(6)=   0.000000

     crystal axes: (cart. coord. in units of alat)
               a(1) = (   1.000000   0.000000   0.000000 )  
               a(2) = (  -0.494909   0.873288   0.000000 )  
               a(3) = (  -0.457239   0.413134   5.269950 )  

     reciprocal axes: (cart. coord. in units 2 pi/alat)
               b(1) = (  1.000000  0.566720  0.042336 )  
               b(2) = (  0.000000  1.145098 -0.089769 )  
               b(3) = (  0.000000  0.000000  0.189755 )  


     PseudoPot. # 1 for Mo read from file:
     ~/pseudo/Mo.pw91-n-van.UPF
     MD5 check sum: Not computed, couldn't open file
     Pseudo is Ultrasoft + core correction, Zval =  6.0
     Generated by new atomic code, or converted to UPF format
     Using radial grid of  965 points,  3 beta functions with: 
                l(1) =   1
                l(2) =   2
                l(3) =   2
     Q(r) pseudized with  8 coefficients,  rinner =    1.000   1.000   1.000
                                                       1.200   1.200

     PseudoPot. # 2 for S  read from file:
     ~/pseudo/S.pw91-van_ak.UPF
     MD5 check sum: Not computed, couldn't open file
     Pseudo is Ultrasoft, Zval =  6.0
     Generated by new atomic code, or converted to UPF format
     Using radial grid of  811 points,  6 beta functions with: 
                l(1) =   0
                l(2) =   0
                l(3) =   1
                l(4) =   1
                l(5) =   2
                l(6) =   2
     Q(r) pseudized with  8 coefficients,  rinner =    1.100   1.100   1.100
                                                       1.100   1.100

     atomic species   valence    mass     pseudopotential
        Mo             6.00    95.50000     Mo( 1.00)
        S              6.00    32.06500     S ( 1.00)

     No symmetry found



   Cartesian axes

     site n.     atom                  positions (alat units)
         1           Mo  tau(   1) = (   0.4608564   0.4121820   0.3419021  )
         2           Mo  tau(   2) = (  -0.3292273   0.7895020   0.3352519  )
         3           Mo  tau(   3) = (   0.1955299   0.7512840   0.3387808  )
         4           Mo  tau(   4) = (  -0.0206006   0.3614081   0.3437492  )
         5           Mo  tau(   5) = (  -0.0175067   1.0993076   3.2587545  )
         6           Mo  tau(   6) = (  -0.2806081   0.6618807   3.2511561  )
         7           Mo  tau(   7) = (   0.2304306   0.6553339   3.2480316  )
         8           Mo  tau(   8) = (  -0.5301826   1.0928482   3.2629181  )
         9           Mo  tau(   9) = (   0.3148160   0.5088668   1.6654299  )
        10           Mo  tau(  10) = (   0.0594717   0.0909899   1.6962250  )
        11           Mo  tau(  11) = (   0.5567241   0.0852204   1.6879261  )
        12           Mo  tau(  12) = (  -0.1928352   0.5052580   1.6629439  )
        13           S   tau(  13) = (  -0.0519485   0.9545374   0.5469359  )
        14           S   tau(  14) = (  -0.2820920   0.5090296   0.5866643  )
        15           S   tau(  15) = (   0.2049463   0.5037203   0.6160199  )
        16           S   tau(  16) = (  -0.5728301   0.9461483   0.5869597  )
        17           S   tau(  17) = (   0.4801617   0.5110592   3.5009619  )
        18           S   tau(  18) = (  -0.2665370   0.9552773   3.4994863  )
        19           S   tau(  19) = (   0.2268302   0.9323712   3.5039089  )
        20           S   tau(  20) = (  -0.0261065   0.5152017   3.4905054  )
        21           S   tau(  21) = (   0.8096923  -0.0737724   1.9199696  )
        22           S   tau(  22) = (   0.0678047   0.3861969   1.9232804  )
        23           S   tau(  23) = (   0.5617729   0.3734524   1.9174281  )
        24           S   tau(  24) = (   0.3153529  -0.0825058   1.9226383  )
        25           S   tau(  25) = (   0.2439418   0.6152101   5.3995243  )
        26           S   tau(  26) = (  -0.5213105   1.0613556   5.3630696  )
        27           S   tau(  27) = (  -0.0118024   1.0663877   5.3340177  )
        28           S   tau(  28) = (  -0.2312218   0.6240243   5.3673046  )
        29           S   tau(  29) = (   0.4786551   0.5135190   3.0004503  )
        30           S   tau(  30) = (  -0.2779095   0.9706307   3.0199328  )
        31           S   tau(  31) = (   0.2243976   0.9533893   3.0102997  )
        32           S   tau(  32) = (  -0.0360278   0.5099288   3.0117648  )
        33           S   tau(  33) = (   0.8118014  -0.0496582   1.4510538  )
        34           S   tau(  34) = (   0.0618347   0.3657152   1.4203350  )
        35           S   tau(  35) = (   0.5562695   0.3577137   1.4167400  )
        36           S   tau(  36) = (   0.2975375  -0.0570003   1.4472913  )

     number of k points=     5  Marzari-Vanderbilt smearing, width (Ry)=  0.0200
                       cart. coord. in units 2pi/alat
        k(    1) = (   0.0000000   0.0000000   0.0000000), wk =   0.2222222
        k(    2) = (   0.0000000   0.3816994  -0.0299231), wk =   0.4444444
        k(    3) = (   0.3333333   0.1889066   0.0141119), wk =   0.4444444
        k(    4) = (   0.3333333   0.5706060  -0.0158111), wk =   0.4444444
        k(    5) = (   0.3333333  -0.1927929   0.0440350), wk =   0.4444444

     Dense  grid:   972729 G-vectors     FFT dimensions: (  75,  75, 400)

     Smooth grid:   344075 G-vectors     FFT dimensions: (  54,  54, 288)

     Estimated max dynamical RAM per process >     151.67 MB

     Estimated total dynamical RAM >       5.92 GB

     Initial potential from superposition of free atoms

     starting charge  215.98107, renormalised to  216.00000

     negative rho (up, down):  5.050E-04 0.000E+00
     Starting wfcs are  204 randomized atomic wfcs

     total cpu time spent up to now is        6.0 secs

     Self-consistent Calculation

     iteration #  1     ecut=    45.00 Ry     beta= 0.70
     Davidson diagonalization with overlap
     ethr =  1.00E-02,  avg # of iterations =  2.0

     negative rho (up, down):  2.914E-05 0.000E+00

     total cpu time spent up to now is       14.4 secs

     total energy              =    -843.76888575 Ry
     Harris-Foulkes estimate   =    -846.65777708 Ry
     estimated scf accuracy    <       7.57221186 Ry

     iteration #  2     ecut=    45.00 Ry     beta= 0.70
     Davidson diagonalization with overlap
     ethr =  3.51E-03,  avg # of iterations =  2.8

     negative rho (up, down):  9.097E-07 0.000E+00

     total cpu time spent up to now is       22.2 secs

     total energy              =    -845.12774067 Ry
     Harris-Foulkes estimate   =    -845.40759627 Ry
     estimated scf accuracy    <       1.41105868 Ry

     iteration #  3     ecut=    45.00 Ry     beta= 0.70
     Davidson diagonalization with overlap
     ethr =  6.53E-04,  avg # of iterations =  2.0

     negative rho (up, down):  1.173E-08 0.000E+00

     total cpu time spent up to now is       28.7 secs

     total energy              =    -845.22477841 Ry
     Harris-Foulkes estimate   =    -845.26522924 Ry
     estimated scf accuracy    <       0.31342588 Ry

     iteration #  4     ecut=    45.00 Ry     beta= 0.70
     Davidson diagonalization with overlap
     ethr =  1.45E-04,  avg # of iterations =  3.0

     total cpu time spent up to now is       35.8 secs

     total energy              =    -845.23610119 Ry
     Harris-Foulkes estimate   =    -845.26388361 Ry
     estimated scf accuracy    <       0.08366596 Ry

     iteration #  5     ecut=    45.00 Ry     beta= 0.70
     Davidson diagonalization with overlap
     ethr =  3.87E-05,  avg # of iterations =  5.6

     total cpu time spent up to now is       45.1 secs

     total energy              =    -845.24785037 Ry
     Harris-Foulkes estimate   =    -845.25108383 Ry
     estimated scf accuracy    <       0.01387787 Ry

     iteration #  6     ecut=    45.00 Ry     beta= 0.70
     Davidson diagonalization with overlap
     ethr =  6.42E-06,  avg # of iterations = 12.6

     total cpu time spent up to now is       56.4 secs

     total energy              =    -845.24713528 Ry
     Harris-Foulkes estimate   =    -845.24949055 Ry
     estimated scf accuracy    <       0.01085006 Ry

     iteration #  7     ecut=    45.00 Ry     beta= 0.70
     Davidson diagonalization with overlap
     ethr =  5.02E-06,  avg # of iterations =  2.2

     total cpu time spent up to now is       62.7 secs

     total energy              =    -845.24697811 Ry
     Harris-Foulkes estimate   =    -845.24794296 Ry
     estimated scf accuracy    <       0.00746846 Ry

     iteration #  8     ecut=    45.00 Ry     beta= 0.70
     Davidson diagonalization with overlap
     ethr =  3.46E-06,  avg # of iterations =  1.2

     total cpu time spent up to now is       68.7 secs

     total energy              =    -845.24723980 Ry
     Harris-Foulkes estimate   =    -845.24728640 Ry
     estimated scf accuracy    <       0.00329994 Ry

     iteration #  9     ecut=    45.00 Ry     beta= 0.70
     Davidson diagonalization with overlap
     ethr =  1.53E-06,  avg # of iterations =  1.6

     total cpu time spent up to now is       74.7 secs

     total energy              =    -845.24763958 Ry
     Harris-Foulkes estimate   =    -845.24737682 Ry
     estimated scf accuracy    <       0.00099188 Ry

     iteration # 10     ecut=    45.00 Ry     beta= 0.70
     Davidson diagonalization with overlap
     ethr =  4.59E-07,  avg # of iterations =  5.2

     negative rho (up, down):  1.107E-08 0.000E+00

     total cpu time spent up to now is       83.1 secs

     total energy              =    -845.24810289 Ry
     Harris-Foulkes estimate   =    -845.24780243 Ry
     estimated scf accuracy    <       0.00030052 Ry

     iteration # 11     ecut=    45.00 Ry     beta= 0.70
     Davidson diagonalization with overlap
     ethr =  1.39E-07,  avg # of iterations =  2.0

     negative rho (up, down):  2.109E-06 0.000E+00

     total cpu time spent up to now is       89.5 secs

     total energy              =    -845.24823388 Ry
     Harris-Foulkes estimate   =    -845.24811896 Ry
     estimated scf accuracy    <       0.00016964 Ry

     iteration # 12     ecut=    45.00 Ry     beta= 0.70
     Davidson diagonalization with overlap
     ethr =  7.85E-08,  avg # of iterations =  1.8

     negative rho (up, down):  1.575E-04 0.000E+00

     total cpu time spent up to now is       96.3 secs

     total energy              =    -845.24824997 Ry
     Harris-Foulkes estimate   =    -845.24824220 Ry
     estimated scf accuracy    <       0.00007934 Ry

     iteration # 13     ecut=    45.00 Ry     beta= 0.70
     Davidson diagonalization with overlap
     ethr =  3.67E-08,  avg # of iterations =  2.2

     negative rho (up, down):  6.470E-04 0.000E+00

     total cpu time spent up to now is      103.5 secs

     total energy              =    -845.24826125 Ry
     Harris-Foulkes estimate   =    -845.24825615 Ry
     estimated scf accuracy    <       0.00003716 Ry

     iteration # 14     ecut=    45.00 Ry     beta= 0.70
     Davidson diagonalization with overlap
     ethr =  1.72E-08,  avg # of iterations =  2.4

     negative rho (up, down):  6.706E-04 0.000E+00

     total cpu time spent up to now is      110.7 secs

     total energy              =    -845.24826522 Ry
     Harris-Foulkes estimate   =    -845.24826440 Ry
     estimated scf accuracy    <       0.00001835 Ry

     iteration # 15     ecut=    45.00 Ry     beta= 0.70
     Davidson diagonalization with overlap
     ethr =  8.50E-09,  avg # of iterations =  2.4

     negative rho (up, down):  6.793E-04 0.000E+00

     total cpu time spent up to now is      118.3 secs

     total energy              =    -845.24826626 Ry
     Harris-Foulkes estimate   =    -845.24826679 Ry
     estimated scf accuracy    <       0.00000778 Ry

     iteration # 16     ecut=    45.00 Ry     beta= 0.70
     Davidson diagonalization with overlap
     ethr =  3.60E-09,  avg # of iterations =  2.4

     negative rho (up, down):  6.447E-04 0.000E+00

     total cpu time spent up to now is      126.5 secs

     total energy              =    -845.24826582 Ry
     Harris-Foulkes estimate   =    -845.24826684 Ry
     estimated scf accuracy    <       0.00000366 Ry

     iteration # 17     ecut=    45.00 Ry     beta= 0.70
     Davidson diagonalization with overlap
     ethr =  1.70E-09,  avg # of iterations =  3.0

     negative rho (up, down):  6.267E-04 0.000E+00

     total cpu time spent up to now is      133.8 secs

     total energy              =    -845.24826563 Ry
     Harris-Foulkes estimate   =    -845.24826609 Ry
     estimated scf accuracy    <       0.00000145 Ry

     iteration # 18     ecut=    45.00 Ry     beta= 0.70
     Davidson diagonalization with overlap
     ethr =  6.71E-10,  avg # of iterations =  3.0

     negative rho (up, down):  7.136E-04 0.000E+00

     total cpu time spent up to now is      140.4 secs

     End of self-consistent calculation

          k = 0.0000 0.0000 0.0000 ( 42929 PWs)   bands (ev):

   -12.5858 -12.5399 -12.4960 -11.5235 -11.4261 -11.3331 -11.1047 -11.0390
   -11.0016 -10.9503 -10.9034 -10.8849 -10.8759 -10.8554 -10.8088 -10.6648
   -10.6119 -10.6023 -10.5933 -10.5598 -10.5256 -10.4978 -10.4694 -10.3934
    -4.4942  -4.4543  -4.3957  -4.2119  -4.1931  -4.1740  -4.1439  -4.1240
    -4.0846  -4.0352  -3.9712  -3.8969  -3.3256  -3.2397  -3.2246  -3.2139
    -3.1929  -3.1773  -3.1653  -3.0955  -3.0169  -2.6327  -2.6012  -2.5814
    -2.5775  -2.5311  -2.5237  -2.5037  -2.4856  -2.4063  -1.8287  -1.7950
    -1.7417  -1.7407  -1.7306  -1.6947  -1.6642  -1.6441  -1.5848  -1.5593
    -1.4030  -1.3204  -1.2610  -1.2314  -1.1404  -1.0027  -0.8576  -0.7214
    -0.6161  -0.5912  -0.5668  -0.5283  -0.4793  -0.2888  -0.2802  -0.2567
    -0.2347  -0.1954  -0.1883  -0.1142  -0.0617  -0.0610  -0.0459   0.0961
     0.1032   0.1701   0.2408   0.3388   0.3874   0.3930   0.4264   0.5765
     0.6802   0.6890   0.7109   0.7457   0.7957   0.8164   0.8169   1.2005
     1.3250   1.3624   1.3994   1.4057   1.5513   1.7669   2.9128   3.0809
     3.1455   3.1589   3.2022   3.2096   3.2564   3.3324   3.3522   3.6007
     3.6410   3.6762   3.7215   3.7458   3.7720   3.7995   3.8042   3.8633
     3.8776   3.8954

          k = 0.0000 0.3817-0.0299 ( 42979 PWs)   bands (ev):

   -12.2507 -12.1769 -12.1570 -11.5165 -11.4692 -11.3824 -11.2597 -11.1691
   -11.1461 -11.0454 -11.0051 -10.9679 -10.9267 -10.8693 -10.8669 -10.8616
   -10.8042 -10.7848 -10.6421 -10.5884 -10.5410 -10.5189 -10.5104 -10.4500
    -4.0593  -3.8358  -3.8268  -3.7631  -3.7423  -3.7251  -3.7205  -3.6834
    -3.6254  -3.6127  -3.5730  -3.5659  -3.3664  -3.3154  -3.2729  -3.2437
    -3.2375  -3.1653  -2.9199  -2.7391  -2.6081  -2.5889  -2.5020  -2.4742
    -2.4290  -2.4181  -2.3640  -2.3477  -2.3118  -2.2380  -2.1876  -1.9416
    -1.9165  -1.9084  -1.8166  -1.8060  -1.7723  -1.7528  -1.7060  -1.5664
    -1.4414  -1.4054  -1.3519  -1.3506  -1.3057  -1.2412  -1.1970  -1.0243
    -0.9385  -0.9143  -0.8946  -0.8267  -0.8230  -0.7292  -0.6901  -0.6380
    -0.6255  -0.5287  -0.5117  -0.3555  -0.3545  -0.2808  -0.2564  -0.1316
    -0.1144   0.0025   0.0387   0.0988   0.2181   0.3140   0.3483   0.4399
     0.4622   0.4776   0.5220   0.5379   0.7267   0.8131   0.8438   0.8962
     1.0520   1.1097   1.1394   1.1614   1.5928   1.9013   2.7926   3.0234
     3.1650   3.1867   3.2110   3.2472   3.2856   3.4101   3.4110   3.4421
     3.4861   3.5424   3.5472   3.5965   3.6653   3.6844   3.7256   3.7327
     3.7566   3.8769

          k = 0.3333 0.1889 0.0141 ( 42995 PWs)   bands (ev):

   -12.2420 -12.1739 -12.1507 -11.4491 -11.4338 -11.3516 -11.3124 -11.2730
   -11.1685 -11.0522 -11.0259 -10.9478 -10.9336 -10.9098 -10.8299 -10.8014
   -10.7717 -10.7573 -10.6586 -10.5993 -10.5966 -10.5373 -10.4947 -10.4672
    -4.0555  -3.8072  -3.7816  -3.7584  -3.7337  -3.6924  -3.6573  -3.6451
    -3.6244  -3.5778  -3.5543  -3.5214  -3.3711  -3.3116  -3.2870  -3.2460
    -3.1770  -3.1452  -2.9906  -2.7165  -2.6056  -2.5627  -2.4851  -2.4587
    -2.4439  -2.4386  -2.3724  -2.3465  -2.3000  -2.2319  -2.0842  -1.9972
    -1.9460  -1.8920  -1.8168  -1.7808  -1.7653  -1.7255  -1.6578  -1.6348
    -1.5257  -1.4705  -1.4253  -1.3912  -1.3339  -1.2393  -1.0445  -1.0368
    -1.0141  -1.0119  -0.8982  -0.8333  -0.8166  -0.8155  -0.7602  -0.6609
    -0.6378  -0.5958  -0.4613  -0.3825  -0.3149  -0.2873  -0.2138  -0.1528
    -0.1160  -0.0376   0.0194   0.0363   0.2376   0.2790   0.3155   0.3614
     0.3863   0.4579   0.5216   0.6886   0.7539   0.7896   0.8716   1.0287
     1.0688   1.0699   1.0946   1.2788   1.5395   2.1774   2.7091   2.9055
     3.0612   3.1364   3.1993   3.2551   3.3272   3.3454   3.3926   3.4425
     3.4439   3.5148   3.5368   3.5759   3.6456   3.7242   3.7360   3.7630
     3.7767   3.8234

          k = 0.3333 0.5706-0.0158 ( 43051 PWs)   bands (ev):

   -11.7284 -11.6560 -11.6319 -11.6295 -11.6187 -11.5747 -11.5671 -11.5304
   -11.4861 -11.2107 -11.0977 -11.0024 -10.9606 -10.9474 -10.9276 -10.8624
   -10.8475 -10.8417 -10.6806 -10.6185 -10.5542 -10.4536 -10.4409 -10.3878
    -3.7955  -3.7297  -3.6475  -3.4892  -3.4410  -3.4159  -3.3736  -3.3590
    -3.3452  -3.3214  -3.2953  -3.2266  -3.0681  -2.9923  -2.9420  -2.8956
    -2.8357  -2.6929  -2.6907  -2.5949  -2.5908  -2.5643  -2.4757  -2.4473
    -2.4266  -2.3552  -2.3530  -2.2978  -2.2920  -2.2534  -2.2455  -2.1951
    -2.1581  -2.1298  -2.0863  -2.0738  -2.0483  -2.0426  -1.8413  -1.7498
    -1.7412  -1.7307  -1.6985  -1.6827  -1.6556  -1.5576  -1.5439  -1.4205
    -1.3986  -1.3340  -1.2859  -1.0115  -0.8271  -0.7971  -0.7729  -0.7135
    -0.6834  -0.6463  -0.5999  -0.5976  -0.5373  -0.4461  -0.4403  -0.2592
     0.1206   0.1277   0.2398   0.2916   0.3234   0.3725   0.3881   0.4503
     0.5090   0.5364   0.5760   0.6137   0.6489   0.6557   0.7001   0.8542
     1.0503   1.3497   1.3572   1.4611   1.5313   1.8607   2.6337   2.6551
     2.7948   2.9427   2.9511   3.0257   3.0774   3.1036   3.1923   3.2122
     3.2284   3.4978   3.5092   3.5442   3.5450   3.6150   3.6467   3.6700
     3.6998   3.7339

          k = 0.3333-0.1928 0.0440 ( 43025 PWs)   bands (ev):

   -12.2382 -12.1738 -12.1465 -11.4436 -11.4394 -11.3382 -11.2740 -11.2724
   -11.1683 -11.0375 -11.0289 -10.9422 -10.9245 -10.9197 -10.8579 -10.8047
   -10.7778 -10.7431 -10.7100 -10.6291 -10.5999 -10.5410 -10.4856 -10.4777
    -3.9415  -3.8146  -3.7970  -3.7238  -3.7224  -3.6849  -3.6582  -3.6464
    -3.6386  -3.5930  -3.5592  -3.4903  -3.3390  -3.2914  -3.2761  -3.2561
    -3.2404  -3.1703  -2.9840  -2.7134  -2.6061  -2.5193  -2.4842  -2.4495
    -2.4283  -2.4243  -2.3714  -2.3335  -2.2860  -2.2325  -2.0881  -2.0400
    -2.0086  -1.9732  -1.8799  -1.8010  -1.7530  -1.7073  -1.5992  -1.5274
    -1.4970  -1.4533  -1.4332  -1.3949  -1.3240  -1.2440  -1.1362  -1.0627
    -1.0479  -0.9243  -0.8772  -0.8708  -0.8605  -0.7783  -0.7675  -0.7028
    -0.6371  -0.5472  -0.4779  -0.3675  -0.3631  -0.3265  -0.2946  -0.1348
    -0.1057  -0.0967  -0.0421  -0.0185   0.2962   0.3293   0.3575   0.3676
     0.4230   0.4778   0.4880   0.7993   0.8385   0.8502   0.8893   0.9379
     1.0037   1.0908   1.1254   1.3922   1.7960   2.2168   2.6037   2.8362
     3.0535   3.0560   3.1433   3.1925   3.2508   3.3067   3.3836   3.4115
     3.5007   3.5242   3.5609   3.5768   3.5887   3.6934   3.7305   3.7680
     3.7992   3.8403

     the Fermi energy is     1.4823 ev

!    total energy              =    -845.24826694 Ry
     Harris-Foulkes estimate   =    -845.24826582 Ry
     estimated scf accuracy    <       0.00000074 Ry

     The total energy is the sum of the following terms:

     one-electron contribution =   -2890.10340865 Ry
     hartree contribution      =    1528.77424078 Ry
     xc contribution           =    -333.50768033 Ry
     ewald contribution        =     849.57583798 Ry
     smearing contrib. (-TS)   =       0.01274327 Ry

     convergence has been achieved in  18 iterations

     negative rho (up, down):  7.136E-04 0.000E+00

     Forces acting on atoms (cartesian axes, Ry/au):

     atom    1 type  1   force =    -0.03719227   -0.02606674    0.03499095
     atom    2 type  1   force =     0.00470077   -0.02346857    0.02350069
     atom    3 type  1   force =     0.02803206   -0.00418302   -0.02902533
     atom    4 type  1   force =     0.00751940    0.04204580   -0.02466053
     atom    5 type  1   force =    -0.00477765   -0.00705928   -0.01166019
     atom    6 type  1   force =     0.02116434    0.01835287    0.00763721
     atom    7 type  1   force =    -0.02470548   -0.00464668    0.00444437
     atom    8 type  1   force =     0.01523352    0.01641834   -0.01276630
     atom    9 type  1   force =    -0.00902665    0.04018902    0.01677686
     atom   10 type  1   force =     0.01131295   -0.03047338   -0.03550837
     atom   11 type  1   force =    -0.00123583   -0.03378128   -0.03330679
     atom   12 type  1   force =     0.01995944    0.03706652    0.02966587
     atom   13 type  2   force =     0.00114221   -0.00212311    0.01181432
     atom   14 type  2   force =    -0.01773094    0.01459141    0.01101399
     atom   15 type  2   force =     0.00921035   -0.01935249   -0.02026054
     atom   16 type  2   force =     0.02841481   -0.01650875   -0.02598208
     atom   17 type  2   force =    -0.00805603    0.01227706   -0.01614446
     atom   18 type  2   force =    -0.01675057   -0.01173835   -0.00408750
     atom   19 type  2   force =    -0.00284003    0.02046415   -0.01532726
     atom   20 type  2   force =    -0.00328218    0.00433835    0.00631849
     atom   21 type  2   force =    -0.00287804    0.00389545    0.00835452
     atom   22 type  2   force =    -0.01518924   -0.01101685   -0.01777948
     atom   23 type  2   force =    -0.00149798    0.00396750   -0.00149411
     atom   24 type  2   force =    -0.01977804    0.01496480   -0.00544550
     atom   25 type  2   force =    -0.00097374    0.01047712   -0.00921426
     atom   26 type  2   force =     0.01669899   -0.01408535   -0.00313925
     atom   27 type  2   force =    -0.00988810    0.02254031    0.00878029
     atom   28 type  2   force =    -0.03020281    0.01550044    0.02283440
     atom   29 type  2   force =    -0.00449104   -0.00273581    0.02557697
     atom   30 type  2   force =     0.00695320   -0.03433901   -0.00577630
     atom   31 type  2   force =     0.00521331   -0.01295603    0.01302191
     atom   32 type  2   force =     0.01677124    0.00200398    0.00942798
     atom   33 type  2   force =    -0.00089114   -0.02110447   -0.01697710
     atom   34 type  2   force =    -0.00074626   -0.00096136    0.03234488
     atom   35 type  2   force =     0.00577994    0.00804783    0.02767749
     atom   36 type  2   force =     0.01402751   -0.01054045   -0.00562587

     Total force =     0.187759     Total SCF correction =     0.001574
 
     init_run     :      5.00s CPU      5.29s WALL (       1 calls)
     electrons    :    129.46s CPU    134.39s WALL (       1 calls)
     forces       :      2.67s CPU      2.76s WALL (       1 calls)

     Called by init_run:
     wfcinit      :      2.78s CPU      2.90s WALL (       1 calls)
     potinit      :      0.62s CPU      0.63s WALL (       1 calls)
     hinit0       :      0.79s CPU      0.88s WALL (       1 calls)

     Called by electrons:
     c_bands      :     93.37s CPU     95.51s WALL (      18 calls)
     sum_band     :     20.40s CPU     21.85s WALL (      18 calls)
     v_of_rho     :      1.50s CPU      1.57s WALL (      19 calls)
     newd         :      6.04s CPU      6.83s WALL (      19 calls)
     mix_rho      :      8.29s CPU      8.82s WALL (      18 calls)

     Called by c_bands:
     init_us_2    :      1.50s CPU      1.51s WALL (     190 calls)
     cegterg      :     86.59s CPU     88.67s WALL (      90 calls)

     Called by sum_band:
     sum_band:bec :      0.10s CPU      0.10s WALL (      90 calls)
     addusdens    :      7.20s CPU      8.40s WALL (      18 calls)

     Called by *egterg:
     h_psi        :     49.75s CPU     50.98s WALL (     382 calls)
     s_psi        :      9.16s CPU      9.19s WALL (     382 calls)
     g_psi        :      0.14s CPU      0.14s WALL (     287 calls)
     cdiaghg      :     14.13s CPU     14.45s WALL (     377 calls)

     Called by h_psi:
     h_psi:pot    :     49.45s CPU     50.45s WALL (     382 calls)
     h_psi:calbec :      9.67s CPU      9.99s WALL (     382 calls)
     vloc_psi     :     30.44s CPU     30.96s WALL (     382 calls)
     add_vuspsi   :      9.34s CPU      9.50s WALL (     382 calls)

     General routines
     calbec       :     14.56s CPU     14.97s WALL (     492 calls)
     fft          :      1.50s CPU      1.64s WALL (     256 calls)
     ffts         :      4.48s CPU      4.98s WALL (    3264 calls)
     fftw         :     34.00s CPU     34.64s WALL (   65534 calls)
     interpolate  :      0.15s CPU      0.16s WALL (      19 calls)
 
     Parallel routines
     fft_scatt_xy :      3.77s CPU      3.82s WALL (   69054 calls)
     fft_scatt_yz :     17.20s CPU     18.00s WALL (   69054 calls)
 
     PWSCF        :   2m17.72s CPU   2m23.26s WALL

 
   This run was terminated on:  10: 0:34  14Oct2021            

=------------------------------------------------------------------------------=
   JOB DONE.
=------------------------------------------------------------------------------=

     Program PWSCF v.6.4 starts on 14Oct2021 at 10:46: 8 

     This program is part of the open-source Quantum ESPRESSO suite
     for quantum simulation of materials; please cite
         "P. Giannozzi et al., J. Phys.:Condens. Matter 21 395502 (2009);
         "P. Giannozzi et al., J. Phys.:Condens. Matter 29 465901 (2017);
          URL http://www.quantum-espresso.org", 
     in publications or presentations arising from this work. More details at
     http://www.quantum-espresso.org/quote

     Parallel version (MPI), running on    40 processors

     MPI processes distributed on     1 nodes
     R & G space division:  proc/nbgrp/npool/nimage =      40
     Waiting for input...
     Reading input from standard input
Warning: card    &IONS ignored
Warning: card      ION_DYNAMICS = 'BFGS' ignored
Warning: card   / ignored
Warning: card    &CELL ignored
Warning: card      CELL_DYNAMICS = 'BFGS', ignored
Warning: card    / ignored

     Current dimensions of program PWSCF are:
     Max number of different atomic species (ntypx) = 10
     Max number of k-points (npk) =  40000
     Max angular momentum in pseudopotentials (lmaxx) =  3

     Subspace diagonalization in iterative solution of the eigenvalue problem:
     one sub-group per band group will be used
     scalapack distributed-memory algorithm (size of sub-group:  4*  4 procs)

 
     Parallelization info
     --------------------
     sticks:   dense  smooth     PW     G-vecs:    dense   smooth      PW
     Min          93      47     12                24306     8595    1225
     Max          94      48     13                24331     8607    1258
     Sum        3747    1881    511               972729   344075   49865
 


     bravais-lattice index     =            0
     lattice parameter (alat)  =      12.2378  a.u.
     unit-cell volume          =    8434.7549 (a.u.)^3
     number of atoms/cell      =           36
     number of atomic types    =            2
     number of electrons       =       216.00
     number of Kohn-Sham states=          130
     kinetic-energy cutoff     =      45.0000  Ry
     charge density cutoff     =     360.0000  Ry
     convergence threshold     =      1.0E-06
     mixing beta               =       0.7000
     number of iterations used =            8  local-TF  mixing
     Exchange-correlation      = SLA PW GGX GGC ( 1  4  2  2 0 0)

     celldm(1)=  12.237788  celldm(2)=   0.000000  celldm(3)=   0.000000
     celldm(4)=   0.000000  celldm(5)=   0.000000  celldm(6)=   0.000000

     crystal axes: (cart. coord. in units of alat)
               a(1) = (   1.000000   0.000000   0.000000 )  
               a(2) = (  -0.494909   0.873288   0.000000 )  
               a(3) = (  -0.457239   0.413134   5.269950 )  

     reciprocal axes: (cart. coord. in units 2 pi/alat)
               b(1) = (  1.000000  0.566720  0.042336 )  
               b(2) = (  0.000000  1.145098 -0.089769 )  
               b(3) = (  0.000000  0.000000  0.189755 )  


     PseudoPot. # 1 for Mo read from file:
     ~/pseudo/Mo.pw91-n-van.UPF
     MD5 check sum: Not computed, couldn't open file
     Pseudo is Ultrasoft + core correction, Zval =  6.0
     Generated by new atomic code, or converted to UPF format
     Using radial grid of  965 points,  3 beta functions with: 
                l(1) =   1
                l(2) =   2
                l(3) =   2
     Q(r) pseudized with  8 coefficients,  rinner =    1.000   1.000   1.000
                                                       1.200   1.200

     PseudoPot. # 2 for S  read from file:
     ~/pseudo/S.pw91-van_ak.UPF
     MD5 check sum: Not computed, couldn't open file
     Pseudo is Ultrasoft, Zval =  6.0
     Generated by new atomic code, or converted to UPF format
     Using radial grid of  811 points,  6 beta functions with: 
                l(1) =   0
                l(2) =   0
                l(3) =   1
                l(4) =   1
                l(5) =   2
                l(6) =   2
     Q(r) pseudized with  8 coefficients,  rinner =    1.100   1.100   1.100
                                                       1.100   1.100

     atomic species   valence    mass     pseudopotential
        Mo             6.00    95.50000     Mo( 1.00)
        S              6.00    32.06500     S ( 1.00)

     No symmetry found



   Cartesian axes

     site n.     atom                  positions (alat units)
         1           Mo  tau(   1) = (   0.4608564   0.4121820   0.3419021  )
         2           Mo  tau(   2) = (  -0.3292273   0.7895020   0.3352519  )
         3           Mo  tau(   3) = (   0.1955299   0.7512840   0.3387808  )
         4           Mo  tau(   4) = (  -0.0206006   0.3614081   0.3437492  )
         5           Mo  tau(   5) = (  -0.0175067   1.0993076   3.2587545  )
         6           Mo  tau(   6) = (  -0.2806081   0.6618807   3.2511561  )
         7           Mo  tau(   7) = (   0.2304306   0.6553339   3.2480316  )
         8           Mo  tau(   8) = (  -0.5301826   1.0928482   3.2629181  )
         9           Mo  tau(   9) = (   0.3148160   0.5088668   1.6654299  )
        10           Mo  tau(  10) = (   0.0594717   0.0909899   1.6962250  )
        11           Mo  tau(  11) = (   0.5567241   0.0852204   1.6879261  )
        12           Mo  tau(  12) = (  -0.1928352   0.5052580   1.6629439  )
        13           S   tau(  13) = (  -0.0519485   0.9545374   0.5469359  )
        14           S   tau(  14) = (  -0.2820920   0.5090296   0.5866643  )
        15           S   tau(  15) = (   0.2049463   0.5037203   0.6160199  )
        16           S   tau(  16) = (  -0.5728301   0.9461483   0.5869597  )
        17           S   tau(  17) = (   0.4801617   0.5110592   3.5009619  )
        18           S   tau(  18) = (  -0.2665370   0.9552773   3.4994863  )
        19           S   tau(  19) = (   0.2268302   0.9323712   3.5039089  )
        20           S   tau(  20) = (  -0.0261065   0.5152017   3.4905054  )
        21           S   tau(  21) = (   0.8096923  -0.0737724   1.9199696  )
        22           S   tau(  22) = (   0.0678047   0.3861969   1.9232804  )
        23           S   tau(  23) = (   0.5617729   0.3734524   1.9174281  )
        24           S   tau(  24) = (   0.3153529  -0.0825058   1.9226383  )
        25           S   tau(  25) = (   0.2439418   0.6152101   5.3995243  )
        26           S   tau(  26) = (  -0.5213105   1.0613556   5.3630696  )
        27           S   tau(  27) = (  -0.0118024   1.0663877   5.3340177  )
        28           S   tau(  28) = (  -0.2312218   0.6240243   5.3673046  )
        29           S   tau(  29) = (   0.4786551   0.5135190   3.0004503  )
        30           S   tau(  30) = (  -0.2779095   0.9706307   3.0199328  )
        31           S   tau(  31) = (   0.2243976   0.9533893   3.0102997  )
        32           S   tau(  32) = (  -0.0360278   0.5099288   3.0117648  )
        33           S   tau(  33) = (   0.8118014  -0.0496582   1.4510538  )
        34           S   tau(  34) = (   0.0618347   0.3657152   1.4203350  )
        35           S   tau(  35) = (   0.5562695   0.3577137   1.4167400  )
        36           S   tau(  36) = (   0.2975375  -0.0570003   1.4472913  )

     number of k points=     5  Marzari-Vanderbilt smearing, width (Ry)=  0.0200
                       cart. coord. in units 2pi/alat
        k(    1) = (   0.0000000   0.0000000   0.0000000), wk =   0.2222222
        k(    2) = (   0.0000000   0.3816994  -0.0299231), wk =   0.4444444
        k(    3) = (   0.3333333   0.1889066   0.0141119), wk =   0.4444444
        k(    4) = (   0.3333333   0.5706060  -0.0158111), wk =   0.4444444
        k(    5) = (   0.3333333  -0.1927929   0.0440350), wk =   0.4444444

     Dense  grid:   972729 G-vectors     FFT dimensions: (  75,  75, 400)

     Smooth grid:   344075 G-vectors     FFT dimensions: (  54,  54, 288)

     Estimated max dynamical RAM per process >     151.67 MB

     Estimated total dynamical RAM >       5.92 GB

     Initial potential from superposition of free atoms

     starting charge  215.98107, renormalised to  216.00000

     negative rho (up, down):  5.050E-04 0.000E+00
     Starting wfcs are  204 randomized atomic wfcs

     total cpu time spent up to now is        7.1 secs

     Self-consistent Calculation

     iteration #  1     ecut=    45.00 Ry     beta= 0.70
     Davidson diagonalization with overlap
     ethr =  1.00E-02,  avg # of iterations =  2.0

     negative rho (up, down):  2.914E-05 0.000E+00

     total cpu time spent up to now is       17.6 secs

     total energy              =    -843.76888575 Ry
     Harris-Foulkes estimate   =    -846.65777708 Ry
     estimated scf accuracy    <       7.57221186 Ry

     iteration #  2     ecut=    45.00 Ry     beta= 0.70
     Davidson diagonalization with overlap
     ethr =  3.51E-03,  avg # of iterations =  2.8

     negative rho (up, down):  9.094E-07 0.000E+00

     total cpu time spent up to now is       27.3 secs

     total energy              =    -845.12774088 Ry
     Harris-Foulkes estimate   =    -845.40759627 Ry
     estimated scf accuracy    <       1.41105868 Ry

     iteration #  3     ecut=    45.00 Ry     beta= 0.70
     Davidson diagonalization with overlap
     ethr =  6.53E-04,  avg # of iterations =  2.0

     negative rho (up, down):  1.184E-08 0.000E+00

     total cpu time spent up to now is       35.6 secs

     total energy              =    -845.22478132 Ry
     Harris-Foulkes estimate   =    -845.26522922 Ry
     estimated scf accuracy    <       0.31342711 Ry

     iteration #  4     ecut=    45.00 Ry     beta= 0.70
     Davidson diagonalization with overlap
     ethr =  1.45E-04,  avg # of iterations =  3.0

     total cpu time spent up to now is       44.5 secs

     total energy              =    -845.23610161 Ry
     Harris-Foulkes estimate   =    -845.26388638 Ry
     estimated scf accuracy    <       0.08366689 Ry

     iteration #  5     ecut=    45.00 Ry     beta= 0.70
     Davidson diagonalization with overlap
     ethr =  3.87E-05,  avg # of iterations =  5.6

     total cpu time spent up to now is       56.1 secs

     total energy              =    -845.24785045 Ry
     Harris-Foulkes estimate   =    -845.25108493 Ry
     estimated scf accuracy    <       0.01387660 Ry

     iteration #  6     ecut=    45.00 Ry     beta= 0.70
     Davidson diagonalization with overlap
     ethr =  6.42E-06,  avg # of iterations = 12.6

     total cpu time spent up to now is       70.7 secs

     total energy              =    -845.24713478 Ry
     Harris-Foulkes estimate   =    -845.24949080 Ry
     estimated scf accuracy    <       0.01085025 Ry

     iteration #  7     ecut=    45.00 Ry     beta= 0.70
     Davidson diagonalization with overlap
     ethr =  5.02E-06,  avg # of iterations =  2.2

     total cpu time spent up to now is       79.5 secs

     total energy              =    -845.24697758 Ry
     Harris-Foulkes estimate   =    -845.24794242 Ry
     estimated scf accuracy    <       0.00746598 Ry

     iteration #  8     ecut=    45.00 Ry     beta= 0.70
     Davidson diagonalization with overlap
     ethr =  3.46E-06,  avg # of iterations =  1.2

     total cpu time spent up to now is       87.1 secs

     total energy              =    -845.24723954 Ry
     Harris-Foulkes estimate   =    -845.24728589 Ry
     estimated scf accuracy    <       0.00329870 Ry

     iteration #  9     ecut=    45.00 Ry     beta= 0.70
     Davidson diagonalization with overlap
     ethr =  1.53E-06,  avg # of iterations =  1.6

     total cpu time spent up to now is       94.7 secs

     total energy              =    -845.24763941 Ry
     Harris-Foulkes estimate   =    -845.24737652 Ry
     estimated scf accuracy    <       0.00099174 Ry

     iteration # 10     ecut=    45.00 Ry     beta= 0.70
     Davidson diagonalization with overlap
     ethr =  4.59E-07,  avg # of iterations =  5.2

     negative rho (up, down):  1.115E-08 0.000E+00

     total cpu time spent up to now is      105.1 secs

     total energy              =    -845.24810317 Ry
     Harris-Foulkes estimate   =    -845.24780236 Ry
     estimated scf accuracy    <       0.00030078 Ry

     iteration # 11     ecut=    45.00 Ry     beta= 0.70
     Davidson diagonalization with overlap
     ethr =  1.39E-07,  avg # of iterations =  1.8

     negative rho (up, down):  2.308E-06 0.000E+00

     total cpu time spent up to now is      113.1 secs

     total energy              =    -845.24823484 Ry
     Harris-Foulkes estimate   =    -845.24811909 Ry
     estimated scf accuracy    <       0.00016914 Ry

     iteration # 12     ecut=    45.00 Ry     beta= 0.70
     Davidson diagonalization with overlap
     ethr =  7.83E-08,  avg # of iterations =  1.8

     negative rho (up, down):  1.526E-04 0.000E+00

     total cpu time spent up to now is      121.9 secs

     total energy              =    -845.24825023 Ry
     Harris-Foulkes estimate   =    -845.24824324 Ry
     estimated scf accuracy    <       0.00007853 Ry

     iteration # 13     ecut=    45.00 Ry     beta= 0.70
     Davidson diagonalization with overlap
     ethr =  3.64E-08,  avg # of iterations =  2.0

     negative rho (up, down):  6.626E-04 0.000E+00

     total cpu time spent up to now is      130.8 secs

     total energy              =    -845.24826163 Ry
     Harris-Foulkes estimate   =    -845.24825616 Ry
     estimated scf accuracy    <       0.00003717 Ry

     iteration # 14     ecut=    45.00 Ry     beta= 0.70
     Davidson diagonalization with overlap
     ethr =  1.72E-08,  avg # of iterations =  2.4

     negative rho (up, down):  6.752E-04 0.000E+00

     total cpu time spent up to now is      139.8 secs

     total energy              =    -845.24826530 Ry
     Harris-Foulkes estimate   =    -845.24826477 Ry
     estimated scf accuracy    <       0.00001767 Ry

     iteration # 15     ecut=    45.00 Ry     beta= 0.70
     Davidson diagonalization with overlap
     ethr =  8.18E-09,  avg # of iterations =  2.4

     negative rho (up, down):  6.747E-04 0.000E+00

     total cpu time spent up to now is      149.2 secs

     total energy              =    -845.24826619 Ry
     Harris-Foulkes estimate   =    -845.24826687 Ry
     estimated scf accuracy    <       0.00000735 Ry

     iteration # 16     ecut=    45.00 Ry     beta= 0.70
     Davidson diagonalization with overlap
     ethr =  3.40E-09,  avg # of iterations =  2.4

     negative rho (up, down):  6.408E-04 0.000E+00

     total cpu time spent up to now is      158.2 secs

     total energy              =    -845.24826575 Ry
     Harris-Foulkes estimate   =    -845.24826673 Ry
     estimated scf accuracy    <       0.00000351 Ry

     iteration # 17     ecut=    45.00 Ry     beta= 0.70
     Davidson diagonalization with overlap
     ethr =  1.62E-09,  avg # of iterations =  3.0

     negative rho (up, down):  6.252E-04 0.000E+00

     total cpu time spent up to now is      167.4 secs

     total energy              =    -845.24826561 Ry
     Harris-Foulkes estimate   =    -845.24826601 Ry
     estimated scf accuracy    <       0.00000141 Ry

     iteration # 18     ecut=    45.00 Ry     beta= 0.70
     Davidson diagonalization with overlap
     ethr =  6.54E-10,  avg # of iterations =  3.0

     negative rho (up, down):  7.136E-04 0.000E+00

     total cpu time spent up to now is      175.7 secs

     End of self-consistent calculation

          k = 0.0000 0.0000 0.0000 ( 42929 PWs)   bands (ev):

   -12.5858 -12.5399 -12.4960 -11.5235 -11.4260 -11.3331 -11.1047 -11.0390
   -11.0016 -10.9503 -10.9034 -10.8849 -10.8759 -10.8554 -10.8088 -10.6648
   -10.6119 -10.6023 -10.5933 -10.5598 -10.5255 -10.4978 -10.4693 -10.3934
    -4.4942  -4.4543  -4.3957  -4.2119  -4.1930  -4.1740  -4.1439  -4.1240
    -4.0846  -4.0352  -3.9712  -3.8968  -3.3256  -3.2397  -3.2246  -3.2140
    -3.1929  -3.1773  -3.1653  -3.0955  -3.0168  -2.6326  -2.6012  -2.5814
    -2.5775  -2.5311  -2.5237  -2.5037  -2.4856  -2.4063  -1.8287  -1.7950
    -1.7417  -1.7407  -1.7306  -1.6946  -1.6642  -1.6441  -1.5848  -1.5593
    -1.4029  -1.3204  -1.2610  -1.2314  -1.1404  -1.0027  -0.8576  -0.7214
    -0.6161  -0.5912  -0.5668  -0.5283  -0.4793  -0.2888  -0.2802  -0.2566
    -0.2347  -0.1954  -0.1882  -0.1142  -0.0617  -0.0610  -0.0458   0.0962
     0.1032   0.1701   0.2408   0.3388   0.3874   0.3930   0.4263   0.5765
     0.6802   0.6890   0.7110   0.7457   0.7957   0.8165   0.8169   1.2005
     1.3250   1.3624   1.3995   1.4057   1.5513   1.7669   2.9129   3.0810
     3.1455   3.1590   3.2022   3.2096   3.2564   3.3325   3.3523   3.6008
     3.6411   3.6762   3.7215   3.7458   3.7720   3.7995   3.8042   3.8633
     3.8776   3.8954

          k = 0.0000 0.3817-0.0299 ( 42979 PWs)   bands (ev):

   -12.2507 -12.1769 -12.1570 -11.5165 -11.4692 -11.3824 -11.2597 -11.1691
   -11.1461 -11.0454 -11.0051 -10.9679 -10.9267 -10.8693 -10.8669 -10.8616
   -10.8042 -10.7848 -10.6421 -10.5884 -10.5411 -10.5189 -10.5104 -10.4500
    -4.0593  -3.8358  -3.8267  -3.7631  -3.7423  -3.7251  -3.7205  -3.6834
    -3.6254  -3.6127  -3.5730  -3.5659  -3.3663  -3.3154  -3.2729  -3.2437
    -3.2375  -3.1653  -2.9199  -2.7391  -2.6081  -2.5889  -2.5020  -2.4742
    -2.4290  -2.4181  -2.3640  -2.3477  -2.3118  -2.2380  -2.1876  -1.9415
    -1.9165  -1.9084  -1.8166  -1.8060  -1.7723  -1.7528  -1.7060  -1.5664
    -1.4414  -1.4054  -1.3518  -1.3506  -1.3057  -1.2412  -1.1970  -1.0243
    -0.9385  -0.9143  -0.8946  -0.8266  -0.8230  -0.7292  -0.6901  -0.6379
    -0.6255  -0.5287  -0.5116  -0.3555  -0.3545  -0.2808  -0.2564  -0.1316
    -0.1144   0.0025   0.0387   0.0988   0.2181   0.3140   0.3483   0.4399
     0.4622   0.4776   0.5220   0.5380   0.7267   0.8131   0.8438   0.8962
     1.0520   1.1097   1.1394   1.1615   1.5928   1.9014   2.7926   3.0234
     3.1650   3.1867   3.2110   3.2472   3.2856   3.4101   3.4110   3.4421
     3.4861   3.5424   3.5472   3.5965   3.6653   3.6844   3.7257   3.7327
     3.7566   3.8769

          k = 0.3333 0.1889 0.0141 ( 42995 PWs)   bands (ev):

   -12.2420 -12.1739 -12.1507 -11.4491 -11.4338 -11.3516 -11.3124 -11.2730
   -11.1685 -11.0522 -11.0259 -10.9478 -10.9336 -10.9097 -10.8299 -10.8014
   -10.7717 -10.7573 -10.6586 -10.5992 -10.5966 -10.5372 -10.4947 -10.4672
    -4.0555  -3.8072  -3.7816  -3.7583  -3.7337  -3.6923  -3.6573  -3.6451
    -3.6244  -3.5778  -3.5543  -3.5214  -3.3711  -3.3116  -3.2870  -3.2460
    -3.1770  -3.1452  -2.9906  -2.7164  -2.6056  -2.5627  -2.4851  -2.4586
    -2.4439  -2.4386  -2.3724  -2.3464  -2.3000  -2.2319  -2.0842  -1.9972
    -1.9460  -1.8920  -1.8168  -1.7808  -1.7653  -1.7255  -1.6578  -1.6348
    -1.5257  -1.4705  -1.4252  -1.3912  -1.3339  -1.2393  -1.0444  -1.0368
    -1.0141  -1.0119  -0.8982  -0.8333  -0.8166  -0.8155  -0.7602  -0.6609
    -0.6378  -0.5958  -0.4613  -0.3825  -0.3149  -0.2873  -0.2138  -0.1528
    -0.1160  -0.0376   0.0194   0.0363   0.2376   0.2790   0.3155   0.3614
     0.3863   0.4579   0.5216   0.6886   0.7539   0.7897   0.8716   1.0287
     1.0688   1.0699   1.0946   1.2789   1.5395   2.1774   2.7092   2.9055
     3.0613   3.1364   3.1993   3.2551   3.3272   3.3455   3.3926   3.4425
     3.4439   3.5148   3.5368   3.5759   3.6456   3.7242   3.7360   3.7630
     3.7768   3.8234

          k = 0.3333 0.5706-0.0158 ( 43051 PWs)   bands (ev):

   -11.7283 -11.6560 -11.6319 -11.6295 -11.6187 -11.5747 -11.5671 -11.5304
   -11.4861 -11.2107 -11.0977 -11.0024 -10.9606 -10.9474 -10.9276 -10.8624
   -10.8474 -10.8417 -10.6806 -10.6185 -10.5542 -10.4536 -10.4409 -10.3878
    -3.7955  -3.7297  -3.6475  -3.4892  -3.4410  -3.4159  -3.3736  -3.3590
    -3.3452  -3.3214  -3.2953  -3.2266  -3.0680  -2.9923  -2.9420  -2.8956
    -2.8357  -2.6929  -2.6907  -2.5948  -2.5908  -2.5643  -2.4757  -2.4473
    -2.4266  -2.3552  -2.3530  -2.2978  -2.2920  -2.2534  -2.2455  -2.1951
    -2.1581  -2.1298  -2.0862  -2.0738  -2.0483  -2.0426  -1.8413  -1.7498
    -1.7412  -1.7307  -1.6985  -1.6826  -1.6556  -1.5576  -1.5439  -1.4205
    -1.3985  -1.3340  -1.2859  -1.0115  -0.8271  -0.7971  -0.7729  -0.7135
    -0.6834  -0.6463  -0.5998  -0.5976  -0.5373  -0.4461  -0.4403  -0.2592
     0.1206   0.1277   0.2398   0.2916   0.3234   0.3725   0.3881   0.4503
     0.5090   0.5364   0.5760   0.6137   0.6490   0.6557   0.7001   0.8542
     1.0503   1.3497   1.3572   1.4611   1.5313   1.8607   2.6337   2.6551
     2.7948   2.9427   2.9512   3.0257   3.0774   3.1037   3.1924   3.2122
     3.2284   3.4979   3.5092   3.5442   3.5450   3.6150   3.6467   3.6700
     3.6998   3.7339

          k = 0.3333-0.1928 0.0440 ( 43025 PWs)   bands (ev):

   -12.2382 -12.1738 -12.1465 -11.4436 -11.4394 -11.3382 -11.2740 -11.2724
   -11.1683 -11.0375 -11.0289 -10.9421 -10.9245 -10.9197 -10.8579 -10.8047
   -10.7777 -10.7431 -10.7100 -10.6291 -10.5999 -10.5409 -10.4856 -10.4777
    -3.9415  -3.8145  -3.7970  -3.7238  -3.7224  -3.6849  -3.6582  -3.6463
    -3.6386  -3.5930  -3.5592  -3.4903  -3.3390  -3.2913  -3.2761  -3.2561
    -3.2404  -3.1703  -2.9840  -2.7134  -2.6061  -2.5193  -2.4842  -2.4494
    -2.4283  -2.4243  -2.3714  -2.3335  -2.2860  -2.2325  -2.0881  -2.0400
    -2.0085  -1.9732  -1.8799  -1.8009  -1.7530  -1.7072  -1.5992  -1.5274
    -1.4970  -1.4533  -1.4332  -1.3948  -1.3240  -1.2439  -1.1362  -1.0627
    -1.0479  -0.9243  -0.8772  -0.8708  -0.8605  -0.7783  -0.7675  -0.7028
    -0.6371  -0.5472  -0.4779  -0.3676  -0.3631  -0.3264  -0.2946  -0.1348
    -0.1057  -0.0967  -0.0421  -0.0185   0.2962   0.3293   0.3575   0.3676
     0.4230   0.4778   0.4880   0.7993   0.8385   0.8502   0.8893   0.9379
     1.0037   1.0909   1.1254   1.3922   1.7960   2.2168   2.6037   2.8362
     3.0535   3.0561   3.1434   3.1925   3.2508   3.3067   3.3836   3.4116
     3.5008   3.5242   3.5609   3.5768   3.5887   3.6934   3.7305   3.7680
     3.7993   3.8403

     the Fermi energy is     1.4823 ev

!    total energy              =    -845.24826700 Ry
     Harris-Foulkes estimate   =    -845.24826578 Ry
     estimated scf accuracy    <       0.00000067 Ry

     The total energy is the sum of the following terms:

     one-electron contribution =   -2890.10263643 Ry
     hartree contribution      =    1528.77341339 Ry
     xc contribution           =    -333.50762515 Ry
     ewald contribution        =     849.57583798 Ry
     smearing contrib. (-TS)   =       0.01274322 Ry

     convergence has been achieved in  18 iterations

     negative rho (up, down):  7.136E-04 0.000E+00

     Forces acting on atoms (cartesian axes, Ry/au):

     atom    1 type  1   force =    -0.03718947   -0.02606421    0.03499105
     atom    2 type  1   force =     0.00469954   -0.02346751    0.02350267
     atom    3 type  1   force =     0.02803241   -0.00417920   -0.02902465
     atom    4 type  1   force =     0.00751806    0.04204654   -0.02466055
     atom    5 type  1   force =    -0.00477894   -0.00705942   -0.01166123
     atom    6 type  1   force =     0.02116403    0.01835091    0.00763636
     atom    7 type  1   force =    -0.02470574   -0.00464576    0.00444438
     atom    8 type  1   force =     0.01523430    0.01641771   -0.01276694
     atom    9 type  1   force =    -0.00902606    0.04018866    0.01677616
     atom   10 type  1   force =     0.01131390   -0.03047382   -0.03550901
     atom   11 type  1   force =    -0.00123607   -0.03378152   -0.03330738
     atom   12 type  1   force =     0.01995885    0.03706556    0.02966462
     atom   13 type  2   force =     0.00114239   -0.00212528    0.01181405
     atom   14 type  2   force =    -0.01772971    0.01459243    0.01101674
     atom   15 type  2   force =     0.00920973   -0.01935170   -0.02025789
     atom   16 type  2   force =     0.02841431   -0.01650957   -0.02598136
     atom   17 type  2   force =    -0.00805609    0.01227718   -0.01614151
     atom   18 type  2   force =    -0.01675126   -0.01173807   -0.00408501
     atom   19 type  2   force =    -0.00284002    0.02046415   -0.01532464
     atom   20 type  2   force =    -0.00328245    0.00433833    0.00632068
     atom   21 type  2   force =    -0.00287776    0.00389549    0.00835515
     atom   22 type  2   force =    -0.01518939   -0.01101701   -0.01777852
     atom   23 type  2   force =    -0.00149777    0.00396762   -0.00149322
     atom   24 type  2   force =    -0.01977796    0.01496487   -0.00544513
     atom   25 type  2   force =    -0.00097440    0.01047576   -0.00921463
     atom   26 type  2   force =     0.01669917   -0.01408478   -0.00313941
     atom   27 type  2   force =    -0.00988826    0.02254139    0.00877968
     atom   28 type  2   force =    -0.03020305    0.01549908    0.02283361
     atom   29 type  2   force =    -0.00449026   -0.00273664    0.02557544
     atom   30 type  2   force =     0.00695380   -0.03433892   -0.00577838
     atom   31 type  2   force =     0.00521394   -0.01295559    0.01301970
     atom   32 type  2   force =     0.01677017    0.00200205    0.00942618
     atom   33 type  2   force =    -0.00089134   -0.02110466   -0.01697844
     atom   34 type  2   force =    -0.00074636   -0.00096126    0.03234276
     atom   35 type  2   force =     0.00578015    0.00804777    0.02767586
     atom   36 type  2   force =     0.01402761   -0.01054059   -0.00562717

     Total force =     0.187756     Total SCF correction =     0.001492
 
     init_run     :      5.92s CPU      6.24s WALL (       1 calls)
     electrons    :    161.38s CPU    168.57s WALL (       1 calls)
     forces       :      3.37s CPU      3.55s WALL (       1 calls)

     Called by init_run:
     wfcinit      :      3.25s CPU      3.39s WALL (       1 calls)
     potinit      :      0.68s CPU      0.69s WALL (       1 calls)
     hinit0       :      0.86s CPU      0.91s WALL (       1 calls)

     Called by electrons:
     c_bands      :    113.28s CPU    116.04s WALL (      18 calls)
     sum_band     :     28.44s CPU     30.89s WALL (      18 calls)
     v_of_rho     :      2.24s CPU      2.35s WALL (      19 calls)
     newd         :      6.96s CPU      8.38s WALL (      19 calls)
     mix_rho      :     10.57s CPU     11.10s WALL (      18 calls)

     Called by c_bands:
     init_us_2    :      3.15s CPU      3.18s WALL (     190 calls)
     cegterg      :    104.31s CPU    106.97s WALL (      90 calls)

     Called by sum_band:
     sum_band:bec :      0.15s CPU      0.15s WALL (      90 calls)
     addusdens    :     10.99s CPU     13.10s WALL (      18 calls)

     Called by *egterg:
     h_psi        :     58.39s CPU     60.12s WALL (     380 calls)
     s_psi        :     11.49s CPU     11.51s WALL (     380 calls)
     g_psi        :      0.32s CPU      0.32s WALL (     285 calls)
     cdiaghg      :     15.11s CPU     15.36s WALL (     375 calls)

     Called by h_psi:
     h_psi:pot    :     57.74s CPU     59.05s WALL (     380 calls)
     h_psi:calbec :     12.63s CPU     13.21s WALL (     380 calls)
     vloc_psi     :     33.72s CPU     34.25s WALL (     380 calls)
     add_vuspsi   :     11.38s CPU     11.58s WALL (     380 calls)

     General routines
     calbec       :     18.72s CPU     19.53s WALL (     490 calls)
     fft          :      3.20s CPU      3.36s WALL (     256 calls)
     ffts         :      4.37s CPU      4.86s WALL (    3204 calls)
     fftw         :     38.74s CPU     39.32s WALL (   65534 calls)
     interpolate  :      0.22s CPU      0.23s WALL (      19 calls)
 
     Parallel routines
     fft_scatt_xy :      4.92s CPU      4.99s WALL (   68994 calls)
     fft_scatt_yz :     20.56s CPU     21.32s WALL (   68994 calls)
 
     PWSCF        :   2m51.36s CPU   2m59.32s WALL

 
   This run was terminated on:  10:49: 7  14Oct2021            

=------------------------------------------------------------------------------=
   JOB DONE.
=------------------------------------------------------------------------------=
