
     Program PWSCF v.6.4 starts on 24Dec2021 at 20:52: 1 

     This program is part of the open-source Quantum ESPRESSO suite
     for quantum simulation of materials; please cite
         "P. Giannozzi et al., J. Phys.:Condens. Matter 21 395502 (2009);
         "P. Giannozzi et al., J. Phys.:Condens. Matter 29 465901 (2017);
          URL http://www.quantum-espresso.org", 
     in publications or presentations arising from this work. More details at
     http://www.quantum-espresso.org/quote

     Parallel version (MPI), running on    40 processors

     MPI processes distributed on     1 nodes
     R & G space division:  proc/nbgrp/npool/nimage =      40
     Waiting for input...
     Reading input from standard input
Warning: card    &IONS ignored
Warning: card      ION_DYNAMICS = 'BFGS' ignored
Warning: card   / ignored
Warning: card    &CELL ignored
Warning: card      CELL_DYNAMICS = 'BFGS', ignored
Warning: card    / ignored

     Current dimensions of program PWSCF are:
     Max number of different atomic species (ntypx) = 10
     Max number of k-points (npk) =  40000
     Max angular momentum in pseudopotentials (lmaxx) =  3

     Subspace diagonalization in iterative solution of the eigenvalue problem:
     one sub-group per band group will be used
     scalapack distributed-memory algorithm (size of sub-group:  4*  4 procs)

 
     Parallelization info
     --------------------
     sticks:   dense  smooth     PW     G-vecs:    dense   smooth      PW
     Min         243     121     32                18360     6490     915
     Max         244     122     33                18364     6496     921
     Sum        9749    4873   1319               734477   259705   36763
 


     bravais-lattice index     =            0
     lattice parameter (alat)  =      18.5701  a.u.
     unit-cell volume          =    6368.0333 (a.u.)^3
     number of atoms/cell      =           42
     number of atomic types    =            2
     number of electrons       =       252.00
     number of Kohn-Sham states=          151
     kinetic-energy cutoff     =      45.0000  Ry
     charge density cutoff     =     360.0000  Ry
     convergence threshold     =      1.0E-06
     mixing beta               =       0.7000
     number of iterations used =            8  local-TF  mixing
     Exchange-correlation      = SLA PW GGX GGC ( 1  4  2  2 0 0)

     celldm(1)=  18.570064  celldm(2)=   0.000000  celldm(3)=   0.000000
     celldm(4)=   0.000000  celldm(5)=   0.000000  celldm(6)=   0.000000

     crystal axes: (cart. coord. in units of alat)
               a(1) = (   1.000000   0.000000   0.000000 )  
               a(2) = (   0.065878   0.985557   0.000000 )  
               a(3) = (   0.004483   0.031668   1.008982 )  

     reciprocal axes: (cart. coord. in units 2 pi/alat)
               b(1) = (  1.000000 -0.066844 -0.002345 )  
               b(2) = (  0.000000  1.014654 -0.031846 )  
               b(3) = (  0.000000  0.000000  0.991098 )  


     PseudoPot. # 1 for Mo read from file:
     ~/pseudo/Mo.pw91-n-van.UPF
     MD5 check sum: Not computed, couldn't open file
     Pseudo is Ultrasoft + core correction, Zval =  6.0
     Generated by new atomic code, or converted to UPF format
     Using radial grid of  965 points,  3 beta functions with: 
                l(1) =   1
                l(2) =   2
                l(3) =   2
     Q(r) pseudized with  8 coefficients,  rinner =    1.000   1.000   1.000
                                                       1.200   1.200

     PseudoPot. # 2 for S  read from file:
     ~/pseudo/S.pw91-van_ak.UPF
     MD5 check sum: Not computed, couldn't open file
     Pseudo is Ultrasoft, Zval =  6.0
     Generated by new atomic code, or converted to UPF format
     Using radial grid of  811 points,  6 beta functions with: 
                l(1) =   0
                l(2) =   0
                l(3) =   1
                l(4) =   1
                l(5) =   2
                l(6) =   2
     Q(r) pseudized with  8 coefficients,  rinner =    1.100   1.100   1.100
                                                       1.100   1.100

     atomic species   valence    mass     pseudopotential
        Mo             6.00    95.50000     Mo( 1.00)
        S              6.00    32.06500     S ( 1.00)

     No symmetry found



   Cartesian axes

     site n.     atom                  positions (alat units)
         1           Mo  tau(   1) = (   0.3880859   0.6296653   0.1528333  )
         2           Mo  tau(   2) = (   0.1911685   0.6474513   0.3690597  )
         3           Mo  tau(   3) = (   0.2076211   0.8596514   0.1630499  )
         4           Mo  tau(   4) = (   0.4089672   0.8455842   0.3754323  )
         5           Mo  tau(   5) = (   0.3849783   0.1561708   0.6618286  )
         6           Mo  tau(   6) = (   0.1775948   0.1866739   0.8723981  )
         7           Mo  tau(   7) = (   0.1907593   0.3763651   0.6494433  )
         8           Mo  tau(   8) = (   0.4009235   0.3809856   0.8652143  )
         9           Mo  tau(   9) = (   0.6138455   0.0938372   0.4338780  )
        10           Mo  tau(  10) = (   0.6289506   0.3978056   0.0976400  )
        11           Mo  tau(  11) = (   0.9473010   0.4203664   0.4195273  )
        12           Mo  tau(  12) = (   0.9098581   0.6316148   0.6207142  )
        13           Mo  tau(  13) = (   0.6373221   0.6103656   0.8717800  )
        14           Mo  tau(  14) = (   0.6620935   0.8505628   0.6253232  )
        15           S   tau(  15) = (   0.1412882   0.6258667   0.1239909  )
        16           S   tau(  16) = (   0.4361978   0.6033185   0.3841001  )
        17           S   tau(  17) = (   0.3720684   0.1209046   0.4051859  )
        18           S   tau(  18) = (   0.1417003   0.1163313   0.1134240  )
        19           S   tau(  19) = (   0.1732339   0.3901978   0.3986288  )
        20           S   tau(  20) = (   0.3861206   0.3791257   0.1190158  )
        21           S   tau(  21) = (   0.8531810   0.3946701   0.1908534  )
        22           S   tau(  22) = (   0.1369275   0.1372683   0.6400527  )
        23           S   tau(  23) = (   0.4100986   0.1342138   0.9026523  )
        24           S   tau(  24) = (   0.4000342   0.6421494   0.8952447  )
        25           S   tau(  25) = (   0.1631816   0.6332749   0.6240965  )
        26           S   tau(  26) = (   0.9391113   0.1011002   0.8868325  )
        27           S   tau(  27) = (   0.4262741   0.8812139   0.6285556  )
        28           S   tau(  28) = (   0.6338942   0.1728938   0.2009621  )
        29           S   tau(  29) = (   0.4403215   0.8706506   0.1248829  )
        30           S   tau(  30) = (   0.8420978   0.1946001   0.4254555  )
        31           S   tau(  31) = (   0.9309443   0.6533278   0.3871419  )
        32           S   tau(  32) = (   0.6437517   0.6359851   0.1013972  )
        33           S   tau(  33) = (   0.6680019   0.8523970   0.3847314  )
        34           S   tau(  34) = (   0.1602539   0.8908753   0.3911332  )
        35           S   tau(  35) = (   0.6602362   0.6037538   0.6225984  )
        36           S   tau(  36) = (   0.4347448   0.3895701   0.6145891  )
        37           S   tau(  37) = (   0.8213597   0.7750532   0.8061145  )
        38           S   tau(  38) = (   1.0579668   0.9050584   0.9798964  )
        39           S   tau(  39) = (   0.6376999   0.1059833   0.6726165  )
        40           S   tau(  40) = (   0.6589040   0.3758036   0.8797851  )
        41           S   tau(  41) = (   0.9278936   0.3976879   0.6622109  )
        42           S   tau(  42) = (   0.1563027   0.4156752   0.8969081  )

     number of k points=     8  Marzari-Vanderbilt smearing, width (Ry)=  0.0200
                       cart. coord. in units 2pi/alat
        k(    1) = (   0.0000000   0.0000000   0.0000000), wk =   0.2500000
        k(    2) = (   0.0000000   0.0000000  -0.4955491), wk =   0.2500000
        k(    3) = (   0.0000000  -0.5073272   0.0159229), wk =   0.2500000
        k(    4) = (   0.0000000  -0.5073272  -0.4796262), wk =   0.2500000
        k(    5) = (  -0.5000000   0.0334219   0.0011724), wk =   0.2500000
        k(    6) = (  -0.5000000   0.0334219  -0.4943767), wk =   0.2500000
        k(    7) = (  -0.5000000  -0.4739053   0.0170953), wk =   0.2500000
        k(    8) = (  -0.5000000  -0.4739053  -0.4784538), wk =   0.2500000

     Dense  grid:   734477 G-vectors     FFT dimensions: ( 120, 120, 120)

     Smooth grid:   259705 G-vectors     FFT dimensions: (  80,  80,  81)

     Estimated max dynamical RAM per process >     132.52 MB

     Estimated total dynamical RAM >       5.18 GB

     Initial potential from superposition of free atoms

     starting charge  251.97792, renormalised to  252.00000
     Starting wfcs are  238 randomized atomic wfcs

     total cpu time spent up to now is        7.1 secs

     Self-consistent Calculation

     iteration #  1     ecut=    45.00 Ry     beta= 0.70
     Davidson diagonalization with overlap
     ethr =  1.00E-02,  avg # of iterations =  2.0

     total cpu time spent up to now is       19.1 secs

     total energy              =    -983.39239598 Ry
     Harris-Foulkes estimate   =    -986.88172413 Ry
     estimated scf accuracy    <       9.56473768 Ry

     iteration #  2     ecut=    45.00 Ry     beta= 0.70
     Davidson diagonalization with overlap
     ethr =  3.80E-03,  avg # of iterations =  2.0

     total cpu time spent up to now is       30.3 secs

     total energy              =    -984.70271317 Ry
     Harris-Foulkes estimate   =    -985.61069753 Ry
     estimated scf accuracy    <       5.80571216 Ry

     iteration #  3     ecut=    45.00 Ry     beta= 0.70
     Davidson diagonalization with overlap
     ethr =  2.30E-03,  avg # of iterations =  1.0

     total cpu time spent up to now is       38.9 secs

     total energy              =    -985.14293682 Ry
     Harris-Foulkes estimate   =    -985.26387876 Ry
     estimated scf accuracy    <       1.14166195 Ry

     iteration #  4     ecut=    45.00 Ry     beta= 0.70
     Davidson diagonalization with overlap
     ethr =  4.53E-04,  avg # of iterations =  1.0

     total cpu time spent up to now is       47.5 secs

     total energy              =    -985.17856403 Ry
     Harris-Foulkes estimate   =    -985.21036508 Ry
     estimated scf accuracy    <       0.13608159 Ry

     iteration #  5     ecut=    45.00 Ry     beta= 0.70
     Davidson diagonalization with overlap
     ethr =  5.40E-05,  avg # of iterations =  8.5

     total cpu time spent up to now is       65.6 secs

     total energy              =    -985.19642797 Ry
     Harris-Foulkes estimate   =    -985.21041318 Ry
     estimated scf accuracy    <       0.08596416 Ry

     iteration #  6     ecut=    45.00 Ry     beta= 0.70
     Davidson diagonalization with overlap
     ethr =  3.41E-05,  avg # of iterations =  4.0

     total cpu time spent up to now is       76.1 secs

     total energy              =    -985.20233405 Ry
     Harris-Foulkes estimate   =    -985.20537478 Ry
     estimated scf accuracy    <       0.03584925 Ry

     iteration #  7     ecut=    45.00 Ry     beta= 0.70
     Davidson diagonalization with overlap
     ethr =  1.42E-05,  avg # of iterations =  4.4

     total cpu time spent up to now is       86.8 secs

     total energy              =    -985.20345125 Ry
     Harris-Foulkes estimate   =    -985.20426213 Ry
     estimated scf accuracy    <       0.00823420 Ry

     iteration #  8     ecut=    45.00 Ry     beta= 0.70
     Davidson diagonalization with overlap
     c_bands:  1 eigenvalues not converged
     c_bands:  1 eigenvalues not converged
     ethr =  3.27E-06,  avg # of iterations = 11.9

     total cpu time spent up to now is      103.4 secs

     total energy              =    -985.20392685 Ry
     Harris-Foulkes estimate   =    -985.20406321 Ry
     estimated scf accuracy    <       0.00126186 Ry

     iteration #  9     ecut=    45.00 Ry     beta= 0.70
     Davidson diagonalization with overlap
     c_bands:  1 eigenvalues not converged
     ethr =  5.01E-07,  avg # of iterations =  7.9

     total cpu time spent up to now is      117.5 secs

     total energy              =    -985.20401859 Ry
     Harris-Foulkes estimate   =    -985.20415981 Ry
     estimated scf accuracy    <       0.00165852 Ry

     iteration # 10     ecut=    45.00 Ry     beta= 0.70
     Davidson diagonalization with overlap
     ethr =  5.01E-07,  avg # of iterations =  2.9

     total cpu time spent up to now is      127.2 secs

     total energy              =    -985.20411665 Ry
     Harris-Foulkes estimate   =    -985.20413127 Ry
     estimated scf accuracy    <       0.00020157 Ry

     iteration # 11     ecut=    45.00 Ry     beta= 0.70
     Davidson diagonalization with overlap
     ethr =  8.00E-08,  avg # of iterations =  3.4

     total cpu time spent up to now is      137.6 secs

     total energy              =    -985.20413018 Ry
     Harris-Foulkes estimate   =    -985.20413757 Ry
     estimated scf accuracy    <       0.00009984 Ry

     iteration # 12     ecut=    45.00 Ry     beta= 0.70
     Davidson diagonalization with overlap
     ethr =  3.96E-08,  avg # of iterations =  1.0

     total cpu time spent up to now is      146.2 secs

     total energy              =    -985.20413379 Ry
     Harris-Foulkes estimate   =    -985.20413569 Ry
     estimated scf accuracy    <       0.00002037 Ry

     iteration # 13     ecut=    45.00 Ry     beta= 0.70
     Davidson diagonalization with overlap
     ethr =  8.08E-09,  avg # of iterations =  4.2

     total cpu time spent up to now is      158.5 secs

     total energy              =    -985.20413671 Ry
     Harris-Foulkes estimate   =    -985.20413740 Ry
     estimated scf accuracy    <       0.00000488 Ry

     iteration # 14     ecut=    45.00 Ry     beta= 0.70
     Davidson diagonalization with overlap
     ethr =  1.94E-09,  avg # of iterations =  2.0

     total cpu time spent up to now is      167.8 secs

     End of self-consistent calculation

          k = 0.0000 0.0000 0.0000 ( 32457 PWs)   bands (ev):

    -8.6881  -8.2852  -7.7734  -7.7370  -7.6367  -7.6093  -7.4009  -7.3607
    -7.3134  -7.2362  -7.1831  -7.1416  -7.1056  -6.9986  -6.9443  -6.9246
    -6.8831  -6.8730  -6.8161  -6.7538  -6.5983  -6.5614  -6.5024  -6.3483
    -6.1227  -6.0216  -5.7604  -4.6611  -0.1965  -0.0558  -0.0148  -0.0044
     0.3557   0.4010   0.4205   0.5319   0.5744   0.6336   0.7158   0.7853
     0.8383   0.9035   0.9263   1.0243   1.0917   1.1705   1.2418   1.2702
     1.2881   1.3299   1.3794   1.4068   1.4347   1.4860   1.5456   1.5663
     1.6168   1.6637   1.6827   1.7378   1.8100   1.8346   1.8787   1.9177
     1.9865   2.0163   2.0967   2.1121   2.1489   2.2092   2.2676   2.2783
     2.2930   2.3697   2.3939   2.4351   2.4679   2.4892   2.6061   2.6196
     2.6824   2.6871   2.7677   2.7881   2.8245   2.8932   2.9279   2.9746
     3.0447   3.1389   3.2085   3.2401   3.3375   3.3732   3.3849   3.5278
     3.5962   3.6232   3.7006   3.7584   3.8716   4.0366   4.0702   4.0870
     4.1486   4.2021   4.3079   4.3779   4.4645   4.5269   4.8174   4.8729
     4.9260   4.9554   5.0106   5.0945   5.1519   5.2071   5.3611   5.5127
     5.6452   5.6726   5.7313   5.7587   5.7989   5.8980   5.9432   5.9752
     6.0985   6.1621   6.2464   6.3267   6.4008   6.4299   6.6272   6.8142
     6.9108   6.9554   7.0223   7.1647   7.2391   7.2886   7.3576   7.3984
     7.5013   7.5421   7.6269   7.6764   7.7203   7.8244   7.8394

          k = 0.0000 0.0000-0.4955 ( 32450 PWs)   bands (ev):

    -8.6755  -8.2210  -7.9802  -7.7004  -7.6065  -7.4834  -7.4243  -7.4044
    -7.3572  -7.2714  -7.1932  -7.1127  -7.0500  -6.9973  -6.9700  -6.9156
    -6.8973  -6.8531  -6.7652  -6.7586  -6.6819  -6.5236  -6.4968  -6.3344
    -6.1224  -6.0236  -5.7551  -4.6602  -0.0296   0.0075   0.1113   0.1610
     0.2701   0.3507   0.4324   0.5320   0.5885   0.6189   0.6840   0.7282
     0.7911   0.8673   0.8796   0.9022   0.9684   1.0727   1.1143   1.1806
     1.2443   1.3182   1.3959   1.4029   1.4512   1.4830   1.4968   1.5344
     1.5822   1.6366   1.6458   1.7264   1.8165   1.8642   1.8688   1.9638
     2.0230   2.0361   2.0961   2.1296   2.2202   2.2342   2.2501   2.2952
     2.3304   2.4057   2.4180   2.4513   2.4665   2.5112   2.5820   2.6320
     2.6428   2.7234   2.7374   2.7759   2.8494   2.9149   2.9819   3.0259
     3.0786   3.1227   3.1842   3.2369   3.3082   3.4065   3.4290   3.4798
     3.5751   3.6832   3.7810   3.8803   3.9154   3.9680   4.0786   4.1338
     4.1980   4.2363   4.3360   4.3724   4.4025   4.6075   4.6814   4.8222
     4.8769   4.9639   5.0283   5.1291   5.2220   5.3155   5.3630   5.5409
     5.5821   5.6861   5.7406   5.7487   5.7774   5.8840   5.9029   5.9339
     6.0927   6.1709   6.1914   6.2403   6.3627   6.5078   6.6252   6.7982
     6.8557   6.9077   7.0219   7.1039   7.2545   7.2750   7.3716   7.3809
     7.5294   7.6591   7.7154   7.7880   7.7904   7.8442   7.8713

          k = 0.0000-0.5073 0.0159 ( 32444 PWs)   bands (ev):

    -8.6736  -8.2070  -7.9996  -7.7094  -7.5871  -7.4548  -7.4231  -7.4092
    -7.3556  -7.3137  -7.1714  -7.1174  -7.1055  -7.0042  -6.9391  -6.9100
    -6.8921  -6.8661  -6.8021  -6.7139  -6.6583  -6.5275  -6.4950  -6.3393
    -6.1243  -6.0222  -5.7546  -4.6605  -0.0387   0.0355   0.1404   0.1716
     0.2574   0.3507   0.3944   0.5281   0.6069   0.6253   0.6762   0.7605
     0.7941   0.8226   0.8788   0.9343   0.9897   1.0887   1.1662   1.2227
     1.2770   1.3461   1.3520   1.4067   1.4257   1.4498   1.5013   1.5182
     1.5657   1.5872   1.7164   1.7803   1.8029   1.8316   1.9005   1.9593
     1.9791   2.0049   2.0568   2.0964   2.1935   2.2233   2.2457   2.2776
     2.3147   2.3834   2.4340   2.4717   2.4856   2.5074   2.5569   2.6016
     2.6305   2.6725   2.7300   2.7912   2.8356   2.9211   2.9724   3.0608
     3.1372   3.1663   3.1964   3.2278   3.2701   3.4176   3.4293   3.5199
     3.5294   3.6802   3.7194   3.8210   3.9038   3.9348   4.0607   4.1357
     4.1834   4.3069   4.3260   4.3525   4.3846   4.6896   4.7141   4.8157
     4.9231   4.9943   5.0649   5.1286   5.2371   5.2913   5.4277   5.5005
     5.5867   5.6376   5.7011   5.7511   5.8096   5.8770   5.9351   6.0172
     6.0517   6.0838   6.1647   6.3318   6.3834   6.4998   6.6239   6.7144
     6.9539   7.0172   7.0564   7.1087   7.2003   7.3237   7.3821   7.4707
     7.5076   7.5647   7.6547   7.6871   7.7834   7.8053   7.8556

          k = 0.0000-0.5073-0.4796 ( 32494 PWs)   bands (ev):

    -8.6700  -8.1034  -8.0177  -7.8609  -7.5933  -7.4776  -7.4413  -7.3962
    -7.3462  -7.2583  -7.1869  -7.1217  -7.0588  -7.0135  -6.9771  -6.9254
    -6.8963  -6.8389  -6.7773  -6.7076  -6.6101  -6.5796  -6.4966  -6.3200
    -6.1207  -6.0244  -5.7480  -4.6635   0.0868   0.1430   0.1884   0.2219
     0.3316   0.4054   0.4774   0.4895   0.5419   0.6046   0.6723   0.7283
     0.7938   0.8403   0.8727   0.9305   0.9695   0.9952   1.0695   1.1193
     1.1448   1.2172   1.2445   1.2977   1.3713   1.3924   1.4862   1.5204
     1.5994   1.6089   1.6687   1.7509   1.8027   1.8633   1.8873   1.9133
     1.9654   2.0134   2.0971   2.1706   2.1779   2.2193   2.2370   2.2921
     2.3480   2.3882   2.4507   2.4827   2.5229   2.5427   2.5992   2.6128
     2.6493   2.6931   2.7419   2.7673   2.8552   2.8874   2.9108   2.9771
     3.0592   3.1649   3.2332   3.2714   3.3165   3.5050   3.5660   3.6328
     3.6738   3.7713   3.7835   3.8897   3.8914   3.9708   4.0188   4.1116
     4.1440   4.2227   4.2613   4.3389   4.5181   4.6582   4.7081   4.7829
     4.8248   5.0088   5.0437   5.1486   5.1845   5.2777   5.4092   5.5135
     5.6120   5.6766   5.7199   5.7745   5.8286   5.8451   5.9173   5.9962
     6.1000   6.2209   6.2541   6.3521   6.4121   6.4434   6.5726   6.6757
     6.8399   6.9125   7.0875   7.1701   7.1936   7.2833   7.3690   7.4187
     7.4845   7.5891   7.6935   7.7164   7.7816   7.8017   7.8311

          k =-0.5000 0.0334 0.0012 ( 32494 PWs)   bands (ev):

    -8.6765  -8.1974  -8.0129  -7.7170  -7.5791  -7.5227  -7.4645  -7.3399
    -7.3109  -7.2229  -7.2010  -7.1435  -7.0743  -6.9837  -6.9581  -6.9375
    -6.8957  -6.8554  -6.8177  -6.7627  -6.6295  -6.5869  -6.4839  -6.2993
    -6.1183  -6.0266  -5.7614  -4.6578  -0.0301   0.0519   0.1044   0.1912
     0.3307   0.3973   0.4477   0.4667   0.5575   0.5966   0.6455   0.6633
     0.7410   0.8139   0.8887   0.9456   1.0155   1.1016   1.1713   1.1772
     1.2584   1.3150   1.3281   1.3845   1.4250   1.4835   1.5566   1.5755
     1.6456   1.6797   1.7208   1.7372   1.7987   1.8007   1.8521   1.9591
     1.9746   2.0114   2.0750   2.1751   2.1929   2.2074   2.2213   2.2875
     2.3303   2.4163   2.4394   2.4563   2.4963   2.5269   2.5905   2.6215
     2.6470   2.6790   2.7191   2.7783   2.8642   2.9046   2.9273   3.0391
     3.0688   3.1260   3.1861   3.2050   3.2572   3.4092   3.4654   3.5651
     3.6094   3.6339   3.6635   3.7312   3.8591   3.8840   4.0598   4.1720
     4.2168   4.2532   4.4204   4.4262   4.5012   4.6079   4.7455   4.7862
     4.9500   5.0195   5.0561   5.1006   5.1972   5.2404   5.3550   5.4586
     5.6159   5.6822   5.7381   5.7891   5.8530   5.8692   5.9340   6.0089
     6.0562   6.1354   6.2124   6.3273   6.3640   6.5129   6.5817   6.7261
     6.8663   6.9335   7.0869   7.1025   7.1931   7.2843   7.3509   7.3860
     7.4776   7.5297   7.6694   7.7544   7.7721   7.7879   7.8495

          k =-0.5000 0.0334-0.4944 ( 32462 PWs)   bands (ev):

    -8.6705  -8.0817  -8.0141  -7.9348  -7.5947  -7.4434  -7.4287  -7.3866
    -7.2713  -7.2381  -7.2131  -7.1408  -7.0722  -7.0087  -6.9795  -6.9234
    -6.9095  -6.8404  -6.7733  -6.7380  -6.6859  -6.5257  -6.4916  -6.3104
    -6.1162  -6.0247  -5.7556  -4.6567   0.1096   0.1370   0.2065   0.2278
     0.2660   0.3793   0.4645   0.4903   0.5483   0.5586   0.6570   0.7199
     0.7264   0.8424   0.8711   0.9366   0.9520   1.0439   1.0729   1.1166
     1.1719   1.2058   1.3013   1.3453   1.3989   1.4767   1.5397   1.5776
     1.6064   1.6265   1.6735   1.7202   1.7711   1.8084   1.8885   1.9600
     1.9754   2.0586   2.0753   2.1613   2.1647   2.2347   2.2567   2.2897
     2.3575   2.3955   2.4010   2.4494   2.4773   2.4876   2.5603   2.6119
     2.6196   2.6942   2.7807   2.8152   2.8868   2.8919   2.9945   3.0433
     3.0865   3.1325   3.2082   3.2352   3.2792   3.3459   3.4117   3.5483
     3.5806   3.6180   3.8379   3.8675   3.9681   3.9843   4.0231   4.1328
     4.2551   4.3080   4.3676   4.4974   4.5990   4.6658   4.6804   4.7144
     4.8455   5.0178   5.0440   5.1473   5.2951   5.3147   5.3670   5.4650
     5.6273   5.6616   5.6924   5.7687   5.8044   5.8546   5.9422   5.9723
     6.0641   6.1100   6.2278   6.2744   6.3626   6.4551   6.6222   6.7201
     6.8195   6.9971   7.0429   7.0697   7.2078   7.2312   7.3235   7.3772
     7.5171   7.5534   7.6772   7.7137   7.7765   7.8273   7.8646

          k =-0.5000-0.4739 0.0171 ( 32440 PWs)   bands (ev):

    -8.6692  -8.0628  -8.0449  -7.8978  -7.5890  -7.4893  -7.4482  -7.3855
    -7.2870  -7.2535  -7.1887  -7.1209  -7.0676  -6.9765  -6.9723  -6.9408
    -6.8977  -6.8623  -6.7999  -6.7324  -6.6578  -6.5513  -6.4733  -6.3088
    -6.1197  -6.0242  -5.7520  -4.6578   0.1044   0.1121   0.1874   0.2508
     0.2921   0.3759   0.4642   0.5172   0.5662   0.5992   0.6472   0.8006
     0.8069   0.8557   0.8691   0.9274   0.9644   0.9774   1.0101   1.1113
     1.1281   1.2298   1.3277   1.3725   1.4028   1.4391   1.4761   1.5058
     1.6205   1.6405   1.7168   1.7602   1.7924   1.8379   1.8689   1.9100
     1.9510   2.0559   2.0949   2.1500   2.1842   2.2022   2.2441   2.2767
     2.3147   2.3552   2.4111   2.4234   2.4672   2.5362   2.5689   2.6330
     2.6521   2.6720   2.7548   2.8227   2.8479   2.8849   2.9754   3.0034
     3.0390   3.1306   3.2396   3.2575   3.2858   3.3839   3.4054   3.4724
     3.5560   3.6546   3.7429   3.8611   3.9879   4.0202   4.0536   4.1894
     4.2396   4.3267   4.4253   4.4301   4.5544   4.6449   4.7554   4.8279
     4.8754   4.9439   5.0491   5.1899   5.2721   5.3444   5.3838   5.4873
     5.6043   5.6491   5.6860   5.7537   5.7817   5.8212   5.8796   6.0317
     6.0496   6.1387   6.3116   6.3463   6.4114   6.4393   6.5358   6.6765
     6.7986   6.9175   7.0715   7.0933   7.1601   7.3015   7.3573   7.3912
     7.5078   7.6306   7.6786   7.6955   7.7407   7.7605   7.8294

          k =-0.5000-0.4739-0.4785 ( 32464 PWs)   bands (ev):

    -8.6678  -8.0176  -7.9555  -7.9151  -7.6699  -7.6158  -7.5471  -7.3097
    -7.2629  -7.2411  -7.1956  -7.1065  -7.0873  -6.9875  -6.9580  -6.9279
    -6.8974  -6.8465  -6.8002  -6.6981  -6.5955  -6.5593  -6.4919  -6.3190
    -6.1167  -6.0250  -5.7483  -4.6610   0.1633   0.1744   0.2201   0.2885
     0.3387   0.4281   0.4385   0.5463   0.5629   0.6396   0.6620   0.7440
     0.8187   0.8224   0.8807   0.9380   0.9593   1.0420   1.0504   1.0795
     1.1550   1.1736   1.2266   1.2817   1.3282   1.3428   1.4550   1.5244
     1.5885   1.6133   1.6194   1.6737   1.7284   1.7654   1.8495   1.9303
     1.9742   2.0081   2.0624   2.1479   2.1695   2.2106   2.2740   2.3034
     2.3132   2.3773   2.3913   2.4148   2.4608   2.5249   2.5412   2.5946
     2.6111   2.7126   2.7366   2.7847   2.8362   2.8660   2.8909   2.9803
     3.1001   3.1216   3.2138   3.2821   3.4339   3.5280   3.5753   3.6420
     3.6765   3.7195   3.7977   3.9239   3.9899   4.0338   4.1099   4.1727
     4.2431   4.2942   4.3210   4.4704   4.4851   4.6178   4.7089   4.7597
     4.8012   5.0080   5.0980   5.1981   5.2570   5.3371   5.3729   5.4657
     5.6235   5.6722   5.7429   5.7646   5.8172   5.8816   5.8938   5.9603
     6.1173   6.2170   6.2647   6.3955   6.4170   6.4353   6.5161   6.6514
     6.8169   6.9447   6.9904   7.0436   7.1528   7.2082   7.3539   7.4259
     7.4784   7.5910   7.6783   7.7315   7.7436   7.7645   7.7927

     the Fermi energy is     5.9178 ev

!    total energy              =    -985.20413674 Ry
     Harris-Foulkes estimate   =    -985.20413728 Ry
     estimated scf accuracy    <       0.00000079 Ry

     The total energy is the sum of the following terms:

     one-electron contribution =    -124.14257053 Ry
     hartree contribution      =     197.96503839 Ry
     xc contribution           =    -388.97678575 Ry
     ewald contribution        =    -670.04015287 Ry
     smearing contrib. (-TS)   =      -0.00966598 Ry

     convergence has been achieved in  14 iterations

     Forces acting on atoms (cartesian axes, Ry/au):

     atom    1 type  1   force =    -0.00225822    0.00682839   -0.03252871
     atom    2 type  1   force =    -0.00363518   -0.00269491   -0.02540462
     atom    3 type  1   force =    -0.01891811    0.04263216   -0.05572290
     atom    4 type  1   force =     0.01574813    0.01260623    0.00314856
     atom    5 type  1   force =    -0.00022593   -0.02640019   -0.03099474
     atom    6 type  1   force =    -0.01994066   -0.04887751    0.03794493
     atom    7 type  1   force =    -0.02440749   -0.00505515    0.04062400
     atom    8 type  1   force =     0.02365530    0.00949711   -0.00245373
     atom    9 type  1   force =    -0.01963838    0.03077730   -0.00878750
     atom   10 type  1   force =     0.00778823   -0.01297685    0.02465467
     atom   11 type  1   force =    -0.02995418   -0.04837207   -0.00994230
     atom   12 type  1   force =     0.02460220    0.01942086    0.03755307
     atom   13 type  1   force =    -0.02371591    0.00785652   -0.00046662
     atom   14 type  1   force =    -0.02015219    0.02060280   -0.02635443
     atom   15 type  2   force =     0.02345662    0.00499385    0.01775537
     atom   16 type  2   force =    -0.01316251    0.00024106    0.03294489
     atom   17 type  2   force =     0.02238440   -0.00070296    0.00450946
     atom   18 type  2   force =     0.00441977    0.00397518    0.00058730
     atom   19 type  2   force =     0.02628872   -0.00855154   -0.02110740
     atom   20 type  2   force =     0.01356221   -0.00424757   -0.00678017
     atom   21 type  2   force =     0.00433371    0.01873256    0.00074631
     atom   22 type  2   force =     0.02366585    0.01004359   -0.00567605
     atom   23 type  2   force =    -0.00153057    0.01141031    0.01366435
     atom   24 type  2   force =     0.01315600   -0.00921599   -0.01703447
     atom   25 type  2   force =    -0.01024168    0.00843519    0.01546084
     atom   26 type  2   force =     0.00814312   -0.00502116    0.00603643
     atom   27 type  2   force =    -0.01565502   -0.01834479    0.02065307
     atom   28 type  2   force =    -0.00941994   -0.00548658   -0.00333907
     atom   29 type  2   force =    -0.00390174   -0.00984407    0.02206607
     atom   30 type  2   force =    -0.00998617   -0.00776831    0.01000089
     atom   31 type  2   force =    -0.01802978    0.02964818   -0.02993636
     atom   32 type  2   force =     0.01198161    0.01804250    0.00307875
     atom   33 type  2   force =     0.02738245   -0.02948651   -0.01913858
     atom   34 type  2   force =     0.02514249    0.00427986    0.02435955
     atom   35 type  2   force =    -0.02060853   -0.01673702   -0.01254944
     atom   36 type  2   force =    -0.02139621    0.00135049    0.03029723
     atom   37 type  2   force =    -0.00059933    0.01229631    0.01277350
     atom   38 type  2   force =    -0.00410825   -0.00540255   -0.00445987
     atom   39 type  2   force =     0.01037153   -0.00517673    0.00870631
     atom   40 type  2   force =     0.00240857   -0.02705616   -0.02115396
     atom   41 type  2   force =    -0.00400265   -0.00186204   -0.01055624
     atom   42 type  2   force =     0.00699773    0.02561019   -0.02317840

     Total force =     0.215041     Total SCF correction =     0.001667
 
     init_run     :      6.26s CPU      6.41s WALL (       1 calls)
     electrons    :    157.93s CPU    160.65s WALL (       1 calls)
     forces       :      3.51s CPU      3.57s WALL (       1 calls)

     Called by init_run:
     wfcinit      :      4.48s CPU      4.57s WALL (       1 calls)
     potinit      :      0.48s CPU      0.49s WALL (       1 calls)
     hinit0       :      0.66s CPU      0.67s WALL (       1 calls)

     Called by electrons:
     c_bands      :    132.67s CPU    134.19s WALL (      14 calls)
     sum_band     :     20.06s CPU     20.93s WALL (      14 calls)
     v_of_rho     :      0.94s CPU      0.97s WALL (      15 calls)
     newd         :      3.56s CPU      3.80s WALL (      15 calls)
     mix_rho      :      0.88s CPU      0.93s WALL (      14 calls)

     Called by c_bands:
     init_us_2    :      2.29s CPU      2.30s WALL (     240 calls)
     cegterg      :    123.42s CPU    124.90s WALL (     112 calls)

     Called by sum_band:
     sum_band:bec :      0.22s CPU      0.23s WALL (     112 calls)
     addusdens    :      4.94s CPU      5.51s WALL (      14 calls)

     Called by *egterg:
     h_psi        :     62.77s CPU     63.83s WALL (     569 calls)
     s_psi        :     12.92s CPU     12.92s WALL (     569 calls)
     g_psi        :      0.25s CPU      0.25s WALL (     449 calls)
     cdiaghg      :     30.34s CPU     30.73s WALL (     561 calls)

     Called by h_psi:
     h_psi:pot    :     62.28s CPU     63.33s WALL (     569 calls)
     h_psi:calbec :     14.08s CPU     14.38s WALL (     569 calls)
     vloc_psi     :     35.08s CPU     35.82s WALL (     569 calls)
     add_vuspsi   :     13.10s CPU     13.12s WALL (     569 calls)

     General routines
     calbec       :     21.09s CPU     21.57s WALL (     713 calls)
     fft          :      0.68s CPU      0.73s WALL (     204 calls)
     ffts         :      0.42s CPU      0.46s WALL (     388 calls)
     fftw         :     39.31s CPU     40.12s WALL (   96422 calls)
     interpolate  :      0.08s CPU      0.09s WALL (      15 calls)
 
     Parallel routines
     fft_scatt_xy :      4.26s CPU      4.35s WALL (   97014 calls)
     fft_scatt_yz :     15.76s CPU     16.16s WALL (   97014 calls)
 
     PWSCF        :   2m48.43s CPU   2m51.45s WALL

 
   This run was terminated on:  20:54:52  24Dec2021            

=------------------------------------------------------------------------------=
   JOB DONE.
=------------------------------------------------------------------------------=
