
     Program PWSCF v.6.4 starts on  3Dec2021 at 16:27:43 

     This program is part of the open-source Quantum ESPRESSO suite
     for quantum simulation of materials; please cite
         "P. Giannozzi et al., J. Phys.:Condens. Matter 21 395502 (2009);
         "P. Giannozzi et al., J. Phys.:Condens. Matter 29 465901 (2017);
          URL http://www.quantum-espresso.org", 
     in publications or presentations arising from this work. More details at
     http://www.quantum-espresso.org/quote

     Parallel version (MPI), running on    40 processors

     MPI processes distributed on     1 nodes
     R & G space division:  proc/nbgrp/npool/nimage =      40
     Waiting for input...
     Reading input from standard input
Warning: card    &IONS ignored
Warning: card      ION_DYNAMICS = 'BFGS' ignored
Warning: card   / ignored
Warning: card    &CELL ignored
Warning: card      CELL_DYNAMICS = 'BFGS', ignored
Warning: card    / ignored

     Current dimensions of program PWSCF are:
     Max number of different atomic species (ntypx) = 10
     Max number of k-points (npk) =  40000
     Max angular momentum in pseudopotentials (lmaxx) =  3

     Subspace diagonalization in iterative solution of the eigenvalue problem:
     one sub-group per band group will be used
     scalapack distributed-memory algorithm (size of sub-group:  4*  4 procs)

 
     Parallelization info
     --------------------
     sticks:   dense  smooth     PW     G-vecs:    dense   smooth      PW
     Min         188      94     24                46695    16505    2243
     Max         189      95     25                46702    16517    2261
     Sum        7527    3771    989              1867889   660347   90159
 


     bravais-lattice index     =            0
     lattice parameter (alat)  =      11.7649  a.u.
     unit-cell volume          =   16191.3682 (a.u.)^3
     number of atoms/cell      =           36
     number of atomic types    =            2
     number of electrons       =       216.00
     number of Kohn-Sham states=          130
     kinetic-energy cutoff     =      45.0000  Ry
     charge density cutoff     =     360.0000  Ry
     convergence threshold     =      1.0E-06
     mixing beta               =       0.7000
     number of iterations used =            8  local-TF  mixing
     Exchange-correlation      = SLA PW GGX GGC ( 1  4  2  2 0 0)

     celldm(1)=  11.764873  celldm(2)=   0.000000  celldm(3)=   0.000000
     celldm(4)=   0.000000  celldm(5)=   0.000000  celldm(6)=   0.000000

     crystal axes: (cart. coord. in units of alat)
               a(1) = (   1.000000   0.000000   0.000000 )  
               a(2) = (  -0.473256   1.896415   0.000000 )  
               a(3) = (  -0.076446  -0.036655   5.243105 )  

     reciprocal axes: (cart. coord. in units 2 pi/alat)
               b(1) = (  1.000000  0.249553  0.016325 )  
               b(2) = (  0.000000  0.527311  0.003686 )  
               b(3) = (  0.000000  0.000000  0.190727 )  


     PseudoPot. # 1 for Mo read from file:
     ~/pseudo/Mo.pw91-n-van.UPF
     MD5 check sum: Not computed, couldn't open file
     Pseudo is Ultrasoft + core correction, Zval =  6.0
     Generated by new atomic code, or converted to UPF format
     Using radial grid of  965 points,  3 beta functions with: 
                l(1) =   1
                l(2) =   2
                l(3) =   2
     Q(r) pseudized with  8 coefficients,  rinner =    1.000   1.000   1.000
                                                       1.200   1.200

     PseudoPot. # 2 for S  read from file:
     ~/pseudo/S.pw91-van_ak.UPF
     MD5 check sum: Not computed, couldn't open file
     Pseudo is Ultrasoft, Zval =  6.0
     Generated by new atomic code, or converted to UPF format
     Using radial grid of  811 points,  6 beta functions with: 
                l(1) =   0
                l(2) =   0
                l(3) =   1
                l(4) =   1
                l(5) =   2
                l(6) =   2
     Q(r) pseudized with  8 coefficients,  rinner =    1.100   1.100   1.100
                                                       1.100   1.100

     atomic species   valence    mass     pseudopotential
        Mo             6.00    95.50000     Mo( 1.00)
        S              6.00    32.06500     S ( 1.00)

     No symmetry found



   Cartesian axes

     site n.     atom                  positions (alat units)
         1           Mo  tau(   1) = (   0.0879468   0.4351798   1.6423896  )
         2           Mo  tau(   2) = (   0.3407100   0.8390507   1.7189664  )
         3           Mo  tau(   3) = (   0.5879968   0.4354734   1.6424765  )
         4           Mo  tau(   4) = (  -0.1595179   0.8390021   1.7189416  )
         5           Mo  tau(   5) = (   0.5910807   1.2938543   1.8273655  )
         6           Mo  tau(   6) = (   0.0911314   1.2935931   1.8271882  )
         7           Mo  tau(   7) = (  -0.1583066   1.7234582   1.9207550  )
         8           Mo  tau(   8) = (   0.3416724   1.7235934   1.9208130  )
         9           Mo  tau(   9) = (   0.4190985   1.1836339   5.0984657  )
        10           Mo  tau(  10) = (  -0.0803438   1.1882391   5.0986699  )
        11           Mo  tau(  11) = (   0.2320617   0.0771211   3.3234920  )
        12           Mo  tau(  12) = (   0.7315540   0.0778422   3.3227679  )
        13           S   tau(  13) = (   0.3389089   0.5965705   1.3945344  )
        14           S   tau(  14) = (   0.5668988   0.0475720   1.6825260  )
        15           S   tau(  15) = (   0.8390143   0.5965188   1.3944854  )
        16           S   tau(  16) = (   0.0669102   0.0471777   1.6794468  )
        17           S   tau(  17) = (  -0.0186128   0.1786286   3.5767954  )
        18           S   tau(  18) = (   0.0096562   1.7219538   3.4297945  )
        19           S   tau(  19) = (   0.3382875   0.4975920   1.9206866  )
        20           S   tau(  20) = (   0.0904591   1.8463540   2.1935422  )
        21           S   tau(  21) = (   0.8383774   0.4975126   1.9207114  )
        22           S   tau(  22) = (  -0.4092291   1.8517854   2.1896206  )
        23           S   tau(  23) = (  -0.4909997   1.8670582   3.0721969  )
        24           S   tau(  24) = (   0.4806540   0.3340809   3.2276706  )
        25           S   tau(  25) = (   0.5906326   1.0536662   1.5087108  )
        26           S   tau(  26) = (   0.0905852   1.0531460   1.5085281  )
        27           S   tau(  27) = (   0.5908117   0.9413198   2.0015996  )
        28           S   tau(  28) = (   0.0907514   0.9410654   2.0013815  )
        29           S   tau(  29) = (  -0.1586767   1.3880571   2.1126423  )
        30           S   tau(  30) = (   0.3410478   1.3883234   2.1126721  )
        31           S   tau(  31) = (   0.2456048   1.2150589   0.1291330  )
        32           S   tau(  32) = (  -0.3269439   0.9132453   5.0963816  )
        33           S   tau(  33) = (  -0.1588124   1.4976385   1.6102639  )
        34           S   tau(  34) = (   0.3411683   1.4977877   1.6102902  )
        35           S   tau(  35) = (   0.1687855   1.1805259   4.8246487  )
        36           S   tau(  36) = (   0.6640161   1.4603301   5.1001704  )

     number of k points=     4  Marzari-Vanderbilt smearing, width (Ry)=  0.0200
                       cart. coord. in units 2pi/alat
        k(    1) = (   0.0000000   0.0000000   0.0000000), wk =   0.3333333
        k(    2) = (   0.0000000  -0.2636554  -0.0018432), wk =   0.3333333
        k(    3) = (   0.3333333   0.0831844   0.0054416), wk =   0.6666667
        k(    4) = (   0.3333333  -0.1804710   0.0035984), wk =   0.6666667

     Dense  grid:  1867889 G-vectors     FFT dimensions: (  72, 144, 375)

     Smooth grid:   660347 G-vectors     FFT dimensions: (  54, 100, 270)

     Estimated max dynamical RAM per process >     280.98 MB

     Estimated total dynamical RAM >      10.98 GB

     Initial potential from superposition of free atoms

     starting charge  215.98107, renormalised to  216.00000

     negative rho (up, down):  1.066E-03 0.000E+00
     Starting wfcs are  204 randomized atomic wfcs

     total cpu time spent up to now is       12.8 secs

     Self-consistent Calculation

     iteration #  1     ecut=    45.00 Ry     beta= 0.70
     Davidson diagonalization with overlap
     ethr =  1.00E-02,  avg # of iterations =  2.5

     negative rho (up, down):  1.819E-05 0.000E+00

     total cpu time spent up to now is       34.8 secs

     total energy              =    -843.29871052 Ry
     Harris-Foulkes estimate   =    -846.08764542 Ry
     estimated scf accuracy    <       7.34727763 Ry

     iteration #  2     ecut=    45.00 Ry     beta= 0.70
     Davidson diagonalization with overlap
     ethr =  3.40E-03,  avg # of iterations =  3.0

     negative rho (up, down):  2.052E-07 0.000E+00

     total cpu time spent up to now is       53.6 secs

     total energy              =    -844.57734803 Ry
     Harris-Foulkes estimate   =    -844.90571536 Ry
     estimated scf accuracy    <       1.74861532 Ry

     iteration #  3     ecut=    45.00 Ry     beta= 0.70
     Davidson diagonalization with overlap
     ethr =  8.10E-04,  avg # of iterations =  2.5

     total cpu time spent up to now is       70.0 secs

     total energy              =    -844.69787145 Ry
     Harris-Foulkes estimate   =    -844.74773042 Ry
     estimated scf accuracy    <       0.32068507 Ry

     iteration #  4     ecut=    45.00 Ry     beta= 0.70
     Davidson diagonalization with overlap
     ethr =  1.48E-04,  avg # of iterations =  3.0

     total cpu time spent up to now is       86.5 secs

     total energy              =    -844.71054223 Ry
     Harris-Foulkes estimate   =    -844.73863365 Ry
     estimated scf accuracy    <       0.18580584 Ry

     iteration #  5     ecut=    45.00 Ry     beta= 0.70
     Davidson diagonalization with overlap
     ethr =  8.60E-05,  avg # of iterations =  2.0

     total cpu time spent up to now is      101.9 secs

     total energy              =    -844.71544963 Ry
     Harris-Foulkes estimate   =    -844.72331037 Ry
     estimated scf accuracy    <       0.24957904 Ry

     iteration #  6     ecut=    45.00 Ry     beta= 0.70
     Davidson diagonalization with overlap
     ethr =  8.60E-05,  avg # of iterations =  1.0

     total cpu time spent up to now is      116.6 secs

     total energy              =    -844.71435410 Ry
     Harris-Foulkes estimate   =    -844.72042888 Ry
     estimated scf accuracy    <       0.04612189 Ry

     iteration #  7     ecut=    45.00 Ry     beta= 0.70
     Davidson diagonalization with overlap
     ethr =  2.14E-05,  avg # of iterations =  2.0

     total cpu time spent up to now is      131.8 secs

     total energy              =    -844.71473319 Ry
     Harris-Foulkes estimate   =    -844.71675120 Ry
     estimated scf accuracy    <       0.02895846 Ry

     iteration #  8     ecut=    45.00 Ry     beta= 0.70
     Davidson diagonalization with overlap
     ethr =  1.34E-05,  avg # of iterations =  1.0

     total cpu time spent up to now is      147.1 secs

     total energy              =    -844.71568169 Ry
     Harris-Foulkes estimate   =    -844.71525050 Ry
     estimated scf accuracy    <       0.01089344 Ry

     iteration #  9     ecut=    45.00 Ry     beta= 0.70
     Davidson diagonalization with overlap
     ethr =  5.04E-06,  avg # of iterations = 12.0

     negative rho (up, down):  3.820E-06 0.000E+00

     total cpu time spent up to now is      168.9 secs

     total energy              =    -844.71826362 Ry
     Harris-Foulkes estimate   =    -844.71647723 Ry
     estimated scf accuracy    <       0.01046506 Ry

     iteration # 10     ecut=    45.00 Ry     beta= 0.70
     Davidson diagonalization with overlap
     ethr =  4.84E-06,  avg # of iterations =  2.5

     negative rho (up, down):  1.224E-03 0.000E+00

     total cpu time spent up to now is      186.5 secs

     total energy              =    -844.71927238 Ry
     Harris-Foulkes estimate   =    -844.71844597 Ry
     estimated scf accuracy    <       0.00274071 Ry

     iteration # 11     ecut=    45.00 Ry     beta= 0.70
     Davidson diagonalization with overlap
     ethr =  1.27E-06,  avg # of iterations =  2.8

     negative rho (up, down):  1.218E-03 0.000E+00

     total cpu time spent up to now is      205.3 secs

     total energy              =    -844.71936275 Ry
     Harris-Foulkes estimate   =    -844.71939621 Ry
     estimated scf accuracy    <       0.00111626 Ry

     iteration # 12     ecut=    45.00 Ry     beta= 0.70
     Davidson diagonalization with overlap
     ethr =  5.17E-07,  avg # of iterations =  1.0

     negative rho (up, down):  3.655E-03 0.000E+00

     total cpu time spent up to now is      224.9 secs

     total energy              =    -844.71938456 Ry
     Harris-Foulkes estimate   =    -844.71938984 Ry
     estimated scf accuracy    <       0.00080524 Ry

     iteration # 13     ecut=    45.00 Ry     beta= 0.70
     Davidson diagonalization with overlap
     ethr =  3.73E-07,  avg # of iterations =  2.2

     negative rho (up, down):  3.141E-03 0.000E+00

     total cpu time spent up to now is      242.5 secs

     total energy              =    -844.71940454 Ry
     Harris-Foulkes estimate   =    -844.71943125 Ry
     estimated scf accuracy    <       0.00026068 Ry

     iteration # 14     ecut=    45.00 Ry     beta= 0.70
     Davidson diagonalization with overlap
     ethr =  1.21E-07,  avg # of iterations =  3.5

     negative rho (up, down):  1.967E-03 0.000E+00

     total cpu time spent up to now is      262.2 secs

     total energy              =    -844.71940422 Ry
     Harris-Foulkes estimate   =    -844.71942307 Ry
     estimated scf accuracy    <       0.00006719 Ry

     iteration # 15     ecut=    45.00 Ry     beta= 0.70
     Davidson diagonalization with overlap
     ethr =  3.11E-08,  avg # of iterations =  3.5

     negative rho (up, down):  1.963E-03 0.000E+00

     total cpu time spent up to now is      283.2 secs

     total energy              =    -844.71940589 Ry
     Harris-Foulkes estimate   =    -844.71940719 Ry
     estimated scf accuracy    <       0.00002256 Ry

     iteration # 16     ecut=    45.00 Ry     beta= 0.70
     Davidson diagonalization with overlap
     ethr =  1.04E-08,  avg # of iterations =  3.2

     negative rho (up, down):  1.929E-03 0.000E+00

     total cpu time spent up to now is      303.4 secs

     total energy              =    -844.71940677 Ry
     Harris-Foulkes estimate   =    -844.71940749 Ry
     estimated scf accuracy    <       0.00000800 Ry

     iteration # 17     ecut=    45.00 Ry     beta= 0.70
     Davidson diagonalization with overlap
     ethr =  3.70E-09,  avg # of iterations =  3.2

     negative rho (up, down):  1.883E-03 0.000E+00

     total cpu time spent up to now is      318.9 secs

     End of self-consistent calculation

          k = 0.0000 0.0000 0.0000 ( 82663 PWs)   bands (ev):

   -16.1740 -15.6673 -15.2330 -15.0668 -14.9119 -14.6277 -14.5528 -14.5386
   -14.5287 -14.5242 -14.5200 -14.4404 -14.3339 -14.2884 -14.0996 -14.0306
   -13.9927 -13.9689 -13.9595 -13.9592 -13.9590 -13.8638 -13.8573 -13.3154
    -7.8239  -7.7684  -7.6624  -7.6152  -7.5816  -7.3121  -7.1907  -7.1610
    -7.0858  -7.0308  -7.0033  -6.6764  -6.5579  -6.5465  -6.5340  -6.2947
    -6.2794  -6.2043  -6.1322  -6.1068  -5.9521  -5.8211  -5.7651  -5.5348
    -5.4679  -5.4630  -5.4599  -5.4589  -5.4402  -5.4344  -5.4222  -5.3676
    -5.1985  -5.1930  -5.1840  -5.0138  -5.0106  -5.0011  -4.9526  -4.9455
    -4.9438  -4.9321  -4.9268  -4.9213  -4.6430  -4.5951  -4.4919  -4.4759
    -4.3924  -4.3882  -4.2986  -4.2977  -4.2340  -4.2258  -4.0414  -3.9589
    -3.9134  -3.9040  -3.8017  -3.7870  -3.7402  -3.5282  -3.5276  -3.5242
    -3.5186  -3.3663  -3.1962  -3.1765  -3.1515  -3.1259  -3.0241  -2.9370
    -2.9364  -2.7866  -2.6610  -2.6400  -2.5612  -2.5308  -2.2439  -1.9034
    -1.9013  -1.9013  -1.8964  -1.7241  -1.7173  -1.6914  -1.4548  -1.4223
    -1.1882  -1.0653  -0.5743  -0.2715  -0.2416  -0.2314  -0.2206  -0.2069
    -0.1706  -0.0895   0.0649   0.1018   0.2496   0.2569   0.2623   0.3771
     0.3995   0.4286

          k = 0.0000-0.2637-0.0018 ( 82586 PWs)   bands (ev):

   -16.1227 -15.8146 -15.0898 -14.9979 -14.9187 -14.7578 -14.5386 -14.5348
   -14.5302 -14.5287 -14.5139 -14.4405 -14.3339 -14.2885 -14.0995 -14.0296
   -13.9926 -13.9689 -13.9595 -13.9592 -13.9590 -13.8638 -13.8573 -13.3154
    -7.8618  -7.7389  -7.7317  -7.6711  -7.4951  -7.4149  -7.1503  -7.1275
    -7.0614  -6.9893  -6.8275  -6.7055  -6.6103  -6.5578  -6.5465  -6.3371
    -6.1821  -6.1332  -6.0862  -6.0511  -6.0164  -5.8680  -5.7777  -5.5582
    -5.4680  -5.4642  -5.4631  -5.4599  -5.4581  -5.4344  -5.4222  -5.3688
    -5.2758  -5.1985  -5.1930  -5.0231  -5.0218  -4.9526  -4.9460  -4.9438
    -4.9399  -4.9321  -4.9268  -4.9213  -4.8428  -4.7045  -4.6310  -4.4683
    -4.4103  -4.3470  -4.2985  -4.2975  -4.2589  -4.1412  -3.9764  -3.9525
    -3.9462  -3.9209  -3.8459  -3.6563  -3.5282  -3.5276  -3.5243  -3.5186
    -3.4297  -3.3790  -3.2705  -3.2097  -3.1325  -3.0207  -2.9910  -2.9370
    -2.9364  -2.8813  -2.8376  -2.6230  -2.5974  -2.4596  -2.2061  -1.9035
    -1.9013  -1.9013  -1.8964  -1.7239  -1.7213  -1.7172  -1.4080  -1.3609
    -1.1054  -0.9627  -0.6180  -0.3451  -0.3428  -0.2414  -0.2313  -0.2204
    -0.2069   0.0089   0.0804   0.1599   0.2334   0.2496   0.2569   0.3901
     0.4244   0.4298

          k = 0.3333 0.0832 0.0054 ( 82528 PWs)   bands (ev):

   -15.8694 -15.4407 -15.1249 -14.9778 -14.9146 -14.8702 -14.7799 -14.6035
   -14.5231 -14.4966 -14.4284 -14.4144 -14.3639 -14.3554 -14.2170 -14.1385
   -14.0271 -14.0232 -13.9616 -13.9533 -13.9530 -13.9486 -13.8648 -13.5089
    -7.4252  -7.4238  -7.3130  -7.3097  -7.2206  -7.1057  -7.0986  -6.9086
    -6.8722  -6.7385  -6.6624  -6.4782  -6.4143  -6.1623  -6.1434  -6.0891
    -6.0788  -6.0522  -5.9406  -5.9173  -5.8749  -5.7963  -5.6989  -5.4950
    -5.4806  -5.4761  -5.4692  -5.4202  -5.3801  -5.3419  -5.3293  -5.3254
    -5.3192  -5.3076  -5.3051  -5.2546  -5.1882  -5.1418  -5.1001  -4.9192
    -4.9157  -4.8989  -4.8469  -4.8394  -4.8313  -4.8277  -4.7860  -4.7291
    -4.6995  -4.6433  -4.6403  -4.6348  -4.5360  -4.4000  -4.3181  -4.1401
    -4.1168  -4.0314  -4.0306  -4.0213  -4.0177  -3.8514  -3.8076  -3.8019
    -3.7736  -3.7385  -3.6798  -3.6035  -3.5726  -3.3515  -3.2143  -3.1187
    -3.0981  -2.9615  -2.7625  -2.7440  -2.6850  -2.5921  -2.3425  -1.9066
    -1.8071  -1.8057  -1.7100  -1.7055  -1.3322  -1.2510  -1.1586  -1.0441
    -0.9147  -0.9142  -0.6388  -0.5167  -0.3293  -0.2157  -0.1284  -0.1099
     0.0013   0.0199   0.0201   0.0237   0.0328   0.0373   0.0841   0.0927
     0.1262   0.1715

          k = 0.3333-0.1805 0.0036 ( 82491 PWs)   bands (ev):

   -15.8446 -15.5123 -15.1350 -14.9383 -14.8519 -14.8440 -14.7842 -14.6043
   -14.5570 -14.5335 -14.4427 -14.4061 -14.3639 -14.3554 -14.2147 -14.1313
   -14.0271 -14.0232 -13.9616 -13.9533 -13.9530 -13.9486 -13.8645 -13.5089
    -7.4347  -7.4022  -7.3340  -7.3285  -7.2255  -7.1688  -7.0706  -6.9054
    -6.8821  -6.7061  -6.5506  -6.4445  -6.3699  -6.2088  -6.0891  -6.0827
    -6.0788  -6.0649  -5.9471  -5.9406  -5.8844  -5.7835  -5.7010  -5.5621
    -5.5009  -5.4761  -5.4692  -5.4491  -5.4145  -5.3419  -5.3293  -5.3255
    -5.3192  -5.3168  -5.3076  -5.3051  -5.2331  -5.1454  -5.1187  -4.9455
    -4.9192  -4.9157  -4.8470  -4.8394  -4.8315  -4.8277  -4.8030  -4.7216
    -4.6686  -4.6433  -4.6403  -4.5536  -4.4099  -4.3469  -4.3316  -4.1755
    -4.1096  -4.0314  -4.0306  -4.0213  -4.0177  -3.8677  -3.8076  -3.8019
    -3.7820  -3.7410  -3.7254  -3.6156  -3.5199  -3.3597  -3.2081  -3.1356
    -3.0828  -2.9536  -2.7653  -2.7120  -2.6710  -2.6344  -2.3832  -1.8374
    -1.8070  -1.8057  -1.7099  -1.7055  -1.3103  -1.2714  -1.1421  -1.0413
    -0.9147  -0.9142  -0.6454  -0.5481  -0.3462  -0.2458  -0.2041  -0.0846
     0.0181   0.0201   0.0201   0.0237   0.0373   0.0794   0.0840   0.0928
     0.1168   0.2158

     the Fermi energy is    -1.6044 ev

!    total energy              =    -844.71940576 Ry
     Harris-Foulkes estimate   =    -844.71940720 Ry
     estimated scf accuracy    <       0.00000073 Ry

     The total energy is the sum of the following terms:

     one-electron contribution =   -5018.91781936 Ry
     hartree contribution      =    2566.09394894 Ry
     xc contribution           =    -332.98729001 Ry
     ewald contribution        =    1941.09445637 Ry
     smearing contrib. (-TS)   =      -0.00270171 Ry

     convergence has been achieved in  17 iterations

     negative rho (up, down):  1.883E-03 0.000E+00

     Forces acting on atoms (cartesian axes, Ry/au):

     atom    1 type  1   force =    -0.00336809   -0.07592258   -0.02505060
     atom    2 type  1   force =    -0.00133680    0.03516624    0.00362313
     atom    3 type  1   force =    -0.00351896   -0.07695074   -0.02398660
     atom    4 type  1   force =    -0.00058402    0.03517256    0.00372932
     atom    5 type  1   force =     0.00004388   -0.01694620   -0.01331739
     atom    6 type  1   force =    -0.00002620   -0.01687294   -0.01351986
     atom    7 type  1   force =     0.00236215    0.07729702    0.02142346
     atom    8 type  1   force =     0.00221811    0.07717510    0.02144274
     atom    9 type  1   force =    -0.00209719   -0.00408380   -0.00028312
     atom   10 type  1   force =    -0.00287966    0.00014237   -0.00007679
     atom   11 type  1   force =     0.00058837   -0.00047625    0.00782028
     atom   12 type  1   force =    -0.00097712    0.00126645    0.00638322
     atom   13 type  2   force =    -0.00125221    0.01396248    0.01925729
     atom   14 type  2   force =     0.00297918   -0.00279901    0.02620334
     atom   15 type  2   force =    -0.00136908    0.01404191    0.01927975
     atom   16 type  2   force =     0.00303325   -0.00261754    0.02844945
     atom   17 type  2   force =     0.00025784    0.00461146    0.00961931
     atom   18 type  2   force =    -0.00117673   -0.01118936    0.00151317
     atom   19 type  2   force =    -0.00070449    0.02098077    0.01564004
     atom   20 type  2   force =     0.00150978   -0.01394175   -0.04019798
     atom   21 type  2   force =    -0.00046943    0.02101032    0.01565480
     atom   22 type  2   force =     0.00090977   -0.01580230   -0.03647107
     atom   23 type  2   force =    -0.00036069   -0.00342985   -0.01607405
     atom   24 type  2   force =     0.00124730    0.00941588   -0.00895896
     atom   25 type  2   force =    -0.00020176   -0.00352640    0.00807684
     atom   26 type  2   force =    -0.00001589   -0.00289620    0.00832194
     atom   27 type  2   force =     0.00004074   -0.00297435   -0.00033201
     atom   28 type  2   force =     0.00018754   -0.00276503   -0.00002116
     atom   29 type  2   force =    -0.00073999   -0.01124542   -0.00566453
     atom   30 type  2   force =     0.00014422   -0.01165636   -0.00566745
     atom   31 type  2   force =     0.00060032    0.00296002    0.01179572
     atom   32 type  2   force =    -0.00245314   -0.01226550    0.00031561
     atom   33 type  2   force =     0.00055188   -0.01856979   -0.01408470
     atom   34 type  2   force =    -0.00002202   -0.01868691   -0.01398877
     atom   35 type  2   force =     0.00071609    0.00338957   -0.01062693
     atom   36 type  2   force =     0.00616305    0.00902611   -0.00022743

     Total force =     0.198983     Total SCF correction =     0.002084
 
     init_run     :     11.59s CPU     12.01s WALL (       1 calls)
     electrons    :    292.45s CPU    306.10s WALL (       1 calls)
     forces       :      5.95s CPU      6.29s WALL (       1 calls)

     Called by init_run:
     wfcinit      :      5.80s CPU      5.88s WALL (       1 calls)
     potinit      :      1.36s CPU      1.40s WALL (       1 calls)
     hinit0       :      1.58s CPU      1.60s WALL (       1 calls)

     Called by electrons:
     c_bands      :    170.35s CPU    173.33s WALL (      17 calls)
     sum_band     :     63.00s CPU     68.28s WALL (      17 calls)
     v_of_rho     :      5.13s CPU      5.37s WALL (      18 calls)
     newd         :     17.61s CPU     21.31s WALL (      18 calls)
     mix_rho      :     36.94s CPU     38.57s WALL (      17 calls)

     Called by c_bands:
     init_us_2    :      4.43s CPU      4.49s WALL (     144 calls)
     cegterg      :    157.19s CPU    160.07s WALL (      68 calls)

     Called by sum_band:
     sum_band:bec :      0.11s CPU      0.11s WALL (      68 calls)
     addusdens    :     29.17s CPU     33.95s WALL (      17 calls)

     Called by *egterg:
     h_psi        :    106.61s CPU    108.52s WALL (     276 calls)
     s_psi        :     15.42s CPU     15.44s WALL (     276 calls)
     g_psi        :      0.50s CPU      0.50s WALL (     204 calls)
     cdiaghg      :      9.91s CPU     10.04s WALL (     272 calls)

     Called by h_psi:
     h_psi:pot    :    105.58s CPU    106.98s WALL (     276 calls)
     h_psi:calbec :     16.45s CPU     16.82s WALL (     276 calls)
     vloc_psi     :     72.39s CPU     73.14s WALL (     276 calls)
     add_vuspsi   :     16.74s CPU     17.01s WALL (     276 calls)

     General routines
     calbec       :     24.66s CPU     25.15s WALL (     360 calls)
     fft          :      6.07s CPU      6.38s WALL (     243 calls)
     ffts         :     15.84s CPU     17.22s WALL (    5183 calls)
     fftw         :     76.94s CPU     77.82s WALL (   48186 calls)
     interpolate  :      0.51s CPU      0.54s WALL (      18 calls)
 
     Parallel routines
     fft_scatt_xy :     14.46s CPU     14.61s WALL (   53612 calls)
     fft_scatt_yz :     38.41s CPU     40.30s WALL (   53612 calls)
 
     PWSCF        :   5m10.69s CPU   5m25.24s WALL

 
   This run was terminated on:  16:33: 8   3Dec2021            

=------------------------------------------------------------------------------=
   JOB DONE.
=------------------------------------------------------------------------------=
