
     Program PWSCF v.6.4 starts on 23Dec2021 at 23: 5:20 

     This program is part of the open-source Quantum ESPRESSO suite
     for quantum simulation of materials; please cite
         "P. Giannozzi et al., J. Phys.:Condens. Matter 21 395502 (2009);
         "P. Giannozzi et al., J. Phys.:Condens. Matter 29 465901 (2017);
          URL http://www.quantum-espresso.org", 
     in publications or presentations arising from this work. More details at
     http://www.quantum-espresso.org/quote

     Parallel version (MPI), running on    40 processors

     MPI processes distributed on     1 nodes
     R & G space division:  proc/nbgrp/npool/nimage =      40
     Waiting for input...
     Reading input from standard input
Warning: card    &IONS ignored
Warning: card      ION_DYNAMICS = 'BFGS' ignored
Warning: card   / ignored
Warning: card    &CELL ignored
Warning: card      CELL_DYNAMICS = 'BFGS', ignored
Warning: card    / ignored

     Current dimensions of program PWSCF are:
     Max number of different atomic species (ntypx) = 10
     Max number of k-points (npk) =  40000
     Max angular momentum in pseudopotentials (lmaxx) =  3

     Subspace diagonalization in iterative solution of the eigenvalue problem:
     one sub-group per band group will be used
     scalapack distributed-memory algorithm (size of sub-group:  4*  4 procs)

 
     Parallelization info
     --------------------
     sticks:   dense  smooth     PW     G-vecs:    dense   smooth      PW
     Min         113      56     15                 9530     3364     478
     Max         114      57     16                 9538     3372     485
     Sum        4559    2275    627               381435   134775   19275
 


     bravais-lattice index     =            0
     lattice parameter (alat)  =      12.6871  a.u.
     unit-cell volume          =    3306.5669 (a.u.)^3
     number of atoms/cell      =           21
     number of atomic types    =            2
     number of electrons       =       126.00
     number of Kohn-Sham states=           76
     kinetic-energy cutoff     =      45.0000  Ry
     charge density cutoff     =     360.0000  Ry
     convergence threshold     =      1.0E-06
     mixing beta               =       0.7000
     number of iterations used =            8  local-TF  mixing
     Exchange-correlation      = SLA PW GGX GGC ( 1  4  2  2 0 0)

     celldm(1)=  12.687086  celldm(2)=   0.000000  celldm(3)=   0.000000
     celldm(4)=   0.000000  celldm(5)=   0.000000  celldm(6)=   0.000000

     crystal axes: (cart. coord. in units of alat)
               a(1) = (   1.000000   0.000000   0.000000 )  
               a(2) = (   0.272115   0.987824   0.000000 )  
               a(3) = (   0.426461   0.377506   1.639126 )  

     reciprocal axes: (cart. coord. in units 2 pi/alat)
               b(1) = (  1.000000 -0.275470 -0.196732 )  
               b(2) = (  0.000000  1.012327 -0.233148 )  
               b(3) = (  0.000000  0.000000  0.610081 )  


     PseudoPot. # 1 for Mo read from file:
     ~/pseudo/Mo.pw91-n-van.UPF
     MD5 check sum: Not computed, couldn't open file
     Pseudo is Ultrasoft + core correction, Zval =  6.0
     Generated by new atomic code, or converted to UPF format
     Using radial grid of  965 points,  3 beta functions with: 
                l(1) =   1
                l(2) =   2
                l(3) =   2
     Q(r) pseudized with  8 coefficients,  rinner =    1.000   1.000   1.000
                                                       1.200   1.200

     PseudoPot. # 2 for S  read from file:
     ~/pseudo/S.pw91-van_ak.UPF
     MD5 check sum: Not computed, couldn't open file
     Pseudo is Ultrasoft, Zval =  6.0
     Generated by new atomic code, or converted to UPF format
     Using radial grid of  811 points,  6 beta functions with: 
                l(1) =   0
                l(2) =   0
                l(3) =   1
                l(4) =   1
                l(5) =   2
                l(6) =   2
     Q(r) pseudized with  8 coefficients,  rinner =    1.100   1.100   1.100
                                                       1.100   1.100

     atomic species   valence    mass     pseudopotential
        Mo             6.00    95.50000     Mo( 1.00)
        S              6.00    32.06500     S ( 1.00)

     No symmetry found



   Cartesian axes

     site n.     atom                  positions (alat units)
         1           Mo  tau(   1) = (   0.6434367   0.4505884   0.2724234  )
         2           Mo  tau(   2) = (   0.4013552   0.6944564   0.6728586  )
         3           Mo  tau(   3) = (   1.3238887   1.0954211   1.3571211  )
         4           Mo  tau(   4) = (   0.7149832   0.8481034   0.0760509  )
         5           Mo  tau(   5) = (   1.1239362   0.8693305   0.0382838  )
         6           Mo  tau(   6) = (   0.9571240   0.6937742   0.6810422  )
         7           Mo  tau(   7) = (   1.1951365   0.8753332   0.9698439  )
         8           S   tau(   8) = (   0.9100221   0.6994294   1.0358534  )
         9           S   tau(   9) = (   0.6777616   0.9349460   0.6746873  )
        10           S   tau(  10) = (   1.2084764   1.2075169   1.0527356  )
        11           S   tau(  11) = (   1.1768559   0.9696032   0.6312937  )
        12           S   tau(  12) = (   0.4234034   0.7359644   0.2705046  )
        13           S   tau(  13) = (   0.9408395   0.6835187   0.2834503  )
        14           S   tau(  14) = (   0.6806048   0.4451730   0.6235658  )
        15           S   tau(  15) = (   0.6691386   1.0538670   1.4057496  )
        16           S   tau(  16) = (   0.4387774   0.6446190   1.0201341  )
        17           S   tau(  17) = (   1.1761734   0.4228501   0.6230492  )
        18           S   tau(  18) = (   1.0947669   0.9035785   1.5433140  )
        19           S   tau(  19) = (   0.4070626   0.1832788   0.2422187  )
        20           S   tau(  20) = (   1.0429440   0.4355892   1.4731630  )
        21           S   tau(  21) = (   0.9075582   0.2062428   0.1821942  )

     number of k points=    10  Marzari-Vanderbilt smearing, width (Ry)=  0.0200
                       cart. coord. in units 2pi/alat
        k(    1) = (   0.0000000   0.0000000   0.0000000), wk =   0.1111111
        k(    2) = (   0.0000000   0.0000000  -0.3050407), wk =   0.1111111
        k(    3) = (   0.0000000   0.3374422  -0.0777161), wk =   0.2222222
        k(    4) = (   0.0000000   0.3374422  -0.3827568), wk =   0.2222222
        k(    5) = (   0.3333333  -0.0918232  -0.0655775), wk =   0.2222222
        k(    6) = (   0.3333333  -0.0918232  -0.3706182), wk =   0.2222222
        k(    7) = (   0.3333333   0.2456190  -0.1432936), wk =   0.2222222
        k(    8) = (   0.3333333   0.2456190  -0.4483343), wk =   0.2222222
        k(    9) = (   0.3333333  -0.4292654   0.0121386), wk =   0.2222222
        k(   10) = (   0.3333333  -0.4292654  -0.2929020), wk =   0.2222222

     Dense  grid:   381435 G-vectors     FFT dimensions: (  80,  80, 135)

     Smooth grid:   134775 G-vectors     FFT dimensions: (  60,  60,  96)

     Estimated max dynamical RAM per process >      55.79 MB

     Estimated total dynamical RAM >       2.18 GB

     Initial potential from superposition of free atoms

     starting charge  125.98896, renormalised to  126.00000
     Starting wfcs are  119 randomized atomic wfcs

     total cpu time spent up to now is        3.3 secs

     Self-consistent Calculation

     iteration #  1     ecut=    45.00 Ry     beta= 0.70
     Davidson diagonalization with overlap
     ethr =  1.00E-02,  avg # of iterations =  2.0

     total cpu time spent up to now is        7.2 secs

     total energy              =    -491.49552615 Ry
     Harris-Foulkes estimate   =    -493.42892094 Ry
     estimated scf accuracy    <       5.28701453 Ry

     iteration #  2     ecut=    45.00 Ry     beta= 0.70
     Davidson diagonalization with overlap
     ethr =  4.20E-03,  avg # of iterations =  2.0

     total cpu time spent up to now is       11.0 secs

     total energy              =    -492.21646700 Ry
     Harris-Foulkes estimate   =    -492.71136072 Ry
     estimated scf accuracy    <       2.57523968 Ry

     iteration #  3     ecut=    45.00 Ry     beta= 0.70
     Davidson diagonalization with overlap
     ethr =  2.04E-03,  avg # of iterations =  1.9

     total cpu time spent up to now is       14.2 secs

     total energy              =    -492.46581444 Ry
     Harris-Foulkes estimate   =    -492.55137818 Ry
     estimated scf accuracy    <       0.68188355 Ry

     iteration #  4     ecut=    45.00 Ry     beta= 0.70
     Davidson diagonalization with overlap
     ethr =  5.41E-04,  avg # of iterations =  1.1

     total cpu time spent up to now is       17.1 secs

     total energy              =    -492.48891475 Ry
     Harris-Foulkes estimate   =    -492.50994827 Ry
     estimated scf accuracy    <       0.06507342 Ry

     iteration #  5     ecut=    45.00 Ry     beta= 0.70
     Davidson diagonalization with overlap
     ethr =  5.16E-05,  avg # of iterations =  8.4

     total cpu time spent up to now is       24.0 secs

     total energy              =    -492.50342517 Ry
     Harris-Foulkes estimate   =    -492.50909910 Ry
     estimated scf accuracy    <       0.03898248 Ry

     iteration #  6     ecut=    45.00 Ry     beta= 0.70
     Davidson diagonalization with overlap
     ethr =  3.09E-05,  avg # of iterations =  1.8

     total cpu time spent up to now is       27.1 secs

     total energy              =    -492.50576288 Ry
     Harris-Foulkes estimate   =    -492.50632933 Ry
     estimated scf accuracy    <       0.00333004 Ry

     iteration #  7     ecut=    45.00 Ry     beta= 0.70
     Davidson diagonalization with overlap
     ethr =  2.64E-06,  avg # of iterations =  6.4

     total cpu time spent up to now is       32.4 secs

     total energy              =    -492.50621326 Ry
     Harris-Foulkes estimate   =    -492.50639102 Ry
     estimated scf accuracy    <       0.00108399 Ry

     iteration #  8     ecut=    45.00 Ry     beta= 0.70
     Davidson diagonalization with overlap
     ethr =  8.60E-07,  avg # of iterations =  3.1

     total cpu time spent up to now is       36.0 secs

     total energy              =    -492.50628538 Ry
     Harris-Foulkes estimate   =    -492.50633121 Ry
     estimated scf accuracy    <       0.00036318 Ry

     iteration #  9     ecut=    45.00 Ry     beta= 0.70
     Davidson diagonalization with overlap
     ethr =  2.88E-07,  avg # of iterations =  2.2

     total cpu time spent up to now is       39.3 secs

     total energy              =    -492.50629573 Ry
     Harris-Foulkes estimate   =    -492.50632312 Ry
     estimated scf accuracy    <       0.00020061 Ry

     iteration # 10     ecut=    45.00 Ry     beta= 0.70
     Davidson diagonalization with overlap
     ethr =  1.59E-07,  avg # of iterations =  3.4

     total cpu time spent up to now is       43.0 secs

     total energy              =    -492.50631723 Ry
     Harris-Foulkes estimate   =    -492.50631988 Ry
     estimated scf accuracy    <       0.00003437 Ry

     iteration # 11     ecut=    45.00 Ry     beta= 0.70
     Davidson diagonalization with overlap
     ethr =  2.73E-08,  avg # of iterations =  3.3

     total cpu time spent up to now is       46.8 secs

     total energy              =    -492.50631852 Ry
     Harris-Foulkes estimate   =    -492.50632211 Ry
     estimated scf accuracy    <       0.00001944 Ry

     iteration # 12     ecut=    45.00 Ry     beta= 0.70
     Davidson diagonalization with overlap
     ethr =  1.54E-08,  avg # of iterations =  2.8

     total cpu time spent up to now is       50.3 secs

     total energy              =    -492.50632063 Ry
     Harris-Foulkes estimate   =    -492.50632091 Ry
     estimated scf accuracy    <       0.00000198 Ry

     iteration # 13     ecut=    45.00 Ry     beta= 0.70
     Davidson diagonalization with overlap
     ethr =  1.57E-09,  avg # of iterations =  3.9

     total cpu time spent up to now is       55.1 secs

     End of self-consistent calculation

          k = 0.0000 0.0000 0.0000 ( 16857 PWs)   bands (ev):

    -8.7511  -8.0853  -7.9005  -7.6313  -7.5803  -7.3600  -7.2034  -7.0481
    -6.9291  -6.8980  -6.7915  -6.7077  -6.5346  -6.0510  -0.6460  -0.3819
    -0.1693  -0.0697   0.0751   0.2645   0.3771   0.5836   0.6901   0.7596
     0.9505   0.9592   1.1123   1.2912   1.4296   1.5071   1.5768   1.6576
     1.7213   1.7650   1.9230   2.0096   2.0657   2.1186   2.2265   2.3892
     2.5028   2.5288   2.5580   2.7560   2.8405   2.9081   3.1443   3.2323
     3.2866   3.3793   3.5751   3.7359   3.8894   4.0729   4.2029   4.3502
     4.3806   4.4698   4.5758   4.6680   4.8202   5.0006   5.3143   5.4276
     5.6490   5.9202   6.0219   6.2041   6.2869   6.4796   6.6794   6.8204
     6.8843   6.9117   6.9911   7.1713

          k = 0.0000 0.0000-0.3050 ( 16874 PWs)   bands (ev):

    -8.7308  -8.1690  -7.8810  -7.6320  -7.5079  -7.3722  -7.1604  -7.0905
    -6.9491  -6.8859  -6.7905  -6.7162  -6.5339  -6.0512  -0.6668  -0.4821
    -0.1482  -0.0587   0.0447   0.3072   0.4814   0.5683   0.7242   0.7716
     0.8833   1.0801   1.1824   1.2944   1.3739   1.4541   1.4954   1.5997
     1.7106   1.7957   1.9546   2.0322   2.0555   2.2067   2.3112   2.4226
     2.4585   2.5212   2.6578   2.6814   2.8305   2.9149   2.9712   3.0412
     3.3019   3.4306   3.5935   3.7776   3.9615   4.0509   4.1801   4.3013
     4.4526   4.4759   4.5563   4.6476   4.8652   5.0463   5.2131   5.3409
     5.6991   5.9237   6.1138   6.1257   6.2766   6.5095   6.7040   6.7152
     6.8438   6.9336   7.0194   7.1872

          k = 0.0000 0.3374-0.0777 ( 16860 PWs)   bands (ev):

    -8.6339  -8.0755  -7.8212  -7.7736  -7.5165  -7.3929  -7.2601  -7.0746
    -7.0562  -6.9021  -6.7684  -6.6895  -6.5167  -6.0996  -0.6282  -0.3203
    -0.0815  -0.0172   0.1730   0.2900   0.4833   0.5795   0.6629   0.7123
     1.0093   1.0964   1.2077   1.2566   1.4963   1.5247   1.5591   1.6007
     1.7730   1.8447   1.9054   2.0090   2.0343   2.1382   2.2307   2.2825
     2.3996   2.4962   2.6026   2.7143   2.8075   2.8525   3.0610   3.1115
     3.2584   3.3391   3.6287   3.7296   3.8982   4.0561   4.1197   4.2441
     4.3570   4.4083   4.4863   4.7384   4.9876   5.1903   5.2859   5.4658
     5.6431   5.7394   5.9913   6.1386   6.1711   6.3112   6.5041   6.6718
     6.8586   6.9183   6.9741   7.0740

          k = 0.0000 0.3374-0.3828 ( 16855 PWs)   bands (ev):

    -8.6240  -8.0929  -7.8531  -7.7683  -7.4691  -7.4179  -7.2249  -7.1027
    -7.0064  -6.9398  -6.7721  -6.6924  -6.5167  -6.0998  -0.6503  -0.3609
    -0.1359   0.0055   0.1386   0.3535   0.4569   0.6658   0.7364   0.8726
     0.9187   1.0598   1.2246   1.2742   1.3637   1.4972   1.5642   1.6598
     1.7290   1.8020   1.9353   2.0062   2.0899   2.1511   2.2580   2.3417
     2.4533   2.5447   2.5787   2.6774   2.7371   2.8448   2.9305   3.0959
     3.1296   3.4808   3.6325   3.7368   3.8837   4.0127   4.1431   4.2519
     4.3157   4.4028   4.6102   4.7175   4.8826   5.1395   5.3087   5.4073
     5.7120   5.7630   5.9306   6.1885   6.2370   6.3152   6.4827   6.6671
     6.7585   6.9510   7.0097   7.1756

          k = 0.3333-0.0918-0.0656 ( 16840 PWs)   bands (ev):

    -8.6014  -8.0960  -7.8791  -7.6989  -7.5414  -7.3335  -7.2303  -7.1249
    -7.0039  -6.8782  -6.7953  -6.6914  -6.5979  -6.1444  -0.4204  -0.2538
    -0.0060   0.0760   0.2537   0.3369   0.5135   0.5393   0.6441   0.8322
     0.9421   1.0897   1.2290   1.2850   1.3779   1.4235   1.4808   1.5896
     1.6499   1.7906   1.8679   1.9620   2.0704   2.1265   2.2636   2.3057
     2.4653   2.5347   2.6136   2.7567   2.7987   2.8833   3.0833   3.1679
     3.2644   3.3935   3.5190   3.5658   3.7012   3.7961   4.0087   4.2015
     4.3393   4.4192   4.5466   4.6986   4.8678   5.0156   5.1813   5.5437
     5.6808   5.7457   6.0648   6.1798   6.3009   6.4257   6.4780   6.5390
     6.6354   6.9159   7.1255   7.2334

          k = 0.3333-0.0918-0.3706 ( 16826 PWs)   bands (ev):

    -8.5851  -8.1425  -7.8693  -7.6958  -7.5347  -7.3085  -7.2376  -7.1158
    -7.0050  -6.8832  -6.8031  -6.6942  -6.5951  -6.1454  -0.4399  -0.3353
    -0.0011   0.0597   0.2657   0.3449   0.4749   0.6753   0.7470   0.8041
     0.9690   1.1044   1.2175   1.2694   1.3418   1.4430   1.4996   1.5577
     1.6413   1.7857   1.8950   1.9565   2.0514   2.1585   2.2217   2.2900
     2.4139   2.5393   2.6551   2.7651   2.7951   2.9261   2.9926   3.1304
     3.3099   3.3507   3.4474   3.5680   3.7902   3.8121   4.0180   4.2231
     4.2770   4.4377   4.5958   4.7001   4.9141   5.0772   5.1593   5.3965
     5.6546   5.7816   6.0918   6.1499   6.2453   6.3811   6.4850   6.5824
     6.6615   6.9126   7.1261   7.2319

          k = 0.3333 0.2456-0.1433 ( 16886 PWs)   bands (ev):

    -8.5231  -8.1069  -7.8874  -7.7217  -7.5081  -7.3469  -7.2079  -7.0944
    -6.9939  -6.9512  -6.8578  -6.7275  -6.5813  -6.1561  -0.3939  -0.2327
    -0.0412   0.0855   0.1803   0.3075   0.4337   0.6068   0.7054   0.7943
     0.9062   1.0763   1.1379   1.2192   1.3660   1.4152   1.5439   1.6200
     1.6901   1.7452   1.9144   2.0189   2.0787   2.1446   2.2767   2.3617
     2.4081   2.5426   2.6735   2.7899   2.8700   2.9159   3.0501   3.1164
     3.2492   3.3854   3.5094   3.7058   3.8174   3.8434   4.1781   4.2528
     4.3550   4.4005   4.5858   4.7348   4.9695   5.1635   5.3941   5.4683
     5.5741   5.7648   5.8817   5.9879   6.2408   6.2944   6.4927   6.5474
     6.6809   6.8835   7.0183   7.1076

          k = 0.3333 0.2456-0.4483 ( 16842 PWs)   bands (ev):

    -8.5167  -8.1199  -7.8998  -7.6966  -7.5267  -7.3412  -7.1746  -7.1055
    -6.9803  -6.9677  -6.8800  -6.7181  -6.5803  -6.1566  -0.4177  -0.2916
    -0.0369   0.0693   0.2095   0.3853   0.5241   0.6164   0.6751   0.7888
     0.8716   1.0791   1.1504   1.2434   1.2934   1.4431   1.5433   1.6079
     1.6716   1.7838   1.8657   1.9510   2.0807   2.1824   2.2979   2.4068
     2.4855   2.5410   2.6357   2.7499   2.8750   2.9286   2.9941   3.0724
     3.2897   3.3933   3.4397   3.7101   3.8481   3.8651   4.1549   4.3116
     4.3817   4.4266   4.5611   4.6862   4.8878   5.1723   5.3828   5.4375
     5.6289   5.7401   5.8772   6.0162   6.2617   6.3574   6.4025   6.5470
     6.7496   6.7925   7.0371   7.1694

          k = 0.3333-0.4293 0.0121 ( 16860 PWs)   bands (ev):

    -8.4889  -8.0431  -7.9733  -7.6739  -7.5378  -7.3685  -7.1869  -7.1676
    -7.0575  -6.9129  -6.8495  -6.6787  -6.5793  -6.1807  -0.3917  -0.1993
     0.0264   0.1328   0.2502   0.3992   0.4947   0.5754   0.7291   0.8561
     0.9690   1.0071   1.1993   1.2725   1.3612   1.4247   1.4926   1.5944
     1.6304   1.7537   1.8918   1.9857   2.0604   2.1573   2.2191   2.3540
     2.4140   2.5422   2.6380   2.7278   2.8832   2.9498   2.9865   3.0893
     3.2041   3.2750   3.3559   3.6563   3.7976   3.9310   4.0748   4.2486
     4.3224   4.4224   4.5092   4.6280   5.0354   5.1194   5.3793   5.5038
     5.6071   5.7088   5.8807   6.0629   6.2366   6.3029   6.4691   6.5168
     6.6016   6.9264   7.0046   7.1683

          k = 0.3333-0.4293-0.2929 ( 16846 PWs)   bands (ev):

    -8.4820  -8.0559  -7.9758  -7.6784  -7.5266  -7.3940  -7.1626  -7.1233
    -7.0704  -6.9468  -6.8370  -6.6852  -6.5791  -6.1811  -0.4596  -0.2140
    -0.0056   0.1044   0.2889   0.3979   0.5843   0.6452   0.7554   0.8459
     1.0649   1.1054   1.2123   1.2554   1.3352   1.4376   1.4662   1.5433
     1.6116   1.7321   1.8285   1.8524   2.0686   2.1527   2.2045   2.3200
     2.4778   2.5553   2.6428   2.7460   2.8432   2.9027   3.0013   3.0625
     3.2362   3.2937   3.4336   3.5927   3.7820   3.9163   4.0985   4.2411
     4.3288   4.4205   4.5374   4.6555   4.9896   5.2192   5.3791   5.4683
     5.5824   5.7157   5.8010   6.0754   6.2286   6.3040   6.4207   6.5445
     6.6828   6.8222   7.0524   7.2916

     the Fermi energy is     5.3878 ev

!    total energy              =    -492.50632077 Ry
     Harris-Foulkes estimate   =    -492.50632119 Ry
     estimated scf accuracy    <       0.00000050 Ry

     The total energy is the sum of the following terms:

     one-electron contribution =     -69.47314325 Ry
     hartree contribution      =     100.77810781 Ry
     xc contribution           =    -194.13227149 Ry
     ewald contribution        =    -329.67641498 Ry
     smearing contrib. (-TS)   =      -0.00259886 Ry

     convergence has been achieved in  13 iterations

     Forces acting on atoms (cartesian axes, Ry/au):

     atom    1 type  1   force =    -0.00407635   -0.05656017   -0.00332433
     atom    2 type  1   force =    -0.00285045    0.01492481   -0.01949655
     atom    3 type  1   force =     0.00504602   -0.01852176    0.01331841
     atom    4 type  1   force =    -0.00014493    0.03404649   -0.00530042
     atom    5 type  1   force =     0.01233572    0.01925050    0.04284495
     atom    6 type  1   force =     0.01650713    0.01439316    0.00930427
     atom    7 type  1   force =    -0.02847118   -0.01919076    0.01320252
     atom    8 type  2   force =     0.01131651   -0.00570702   -0.01077965
     atom    9 type  2   force =    -0.00308317   -0.01769967   -0.02750387
     atom   10 type  2   force =     0.00802998    0.02485699    0.00835883
     atom   11 type  2   force =     0.00395226    0.00711371    0.00359587
     atom   12 type  2   force =    -0.02667454    0.00564284   -0.00960750
     atom   13 type  2   force =     0.01436126    0.01787457    0.01438644
     atom   14 type  2   force =     0.00392147   -0.01013570   -0.00894157
     atom   15 type  2   force =    -0.02479584   -0.00601532   -0.00106585
     atom   16 type  2   force =     0.00556907   -0.00449874    0.01022103
     atom   17 type  2   force =    -0.00822108    0.00662716    0.00243132
     atom   18 type  2   force =     0.01202989    0.02365451   -0.03629769
     atom   19 type  2   force =     0.03003558    0.00252710    0.00520340
     atom   20 type  2   force =    -0.01000672   -0.00355194    0.00548665
     atom   21 type  2   force =    -0.01478063   -0.02903073   -0.00603623

     Total force =     0.137571     Total SCF correction =     0.001365
 
     init_run     :      2.47s CPU      2.58s WALL (       1 calls)
     electrons    :     50.79s CPU     51.78s WALL (       1 calls)
     forces       :      1.23s CPU      1.25s WALL (       1 calls)

     Called by init_run:
     wfcinit      :      1.47s CPU      1.52s WALL (       1 calls)
     potinit      :      0.26s CPU      0.26s WALL (       1 calls)
     hinit0       :      0.43s CPU      0.45s WALL (       1 calls)

     Called by electrons:
     c_bands      :     40.29s CPU     41.01s WALL (      13 calls)
     sum_band     :      7.82s CPU      8.04s WALL (      13 calls)
     v_of_rho     :      0.47s CPU      0.50s WALL (      14 calls)
     newd         :      1.79s CPU      1.83s WALL (      14 calls)
     mix_rho      :      0.48s CPU      0.49s WALL (      13 calls)

     Called by c_bands:
     init_us_2    :      0.88s CPU      0.90s WALL (     280 calls)
     cegterg      :     37.24s CPU     37.93s WALL (     130 calls)

     Called by sum_band:
     sum_band:bec :      0.09s CPU      0.09s WALL (     130 calls)
     addusdens    :      2.93s CPU      2.98s WALL (      13 calls)

     Called by *egterg:
     h_psi        :     19.86s CPU     20.38s WALL (     563 calls)
     s_psi        :      2.72s CPU      2.74s WALL (     563 calls)
     g_psi        :      0.07s CPU      0.07s WALL (     423 calls)
     cdiaghg      :     10.49s CPU     10.64s WALL (     553 calls)

     Called by h_psi:
     h_psi:pot    :     19.75s CPU     20.27s WALL (     563 calls)
     h_psi:calbec :      3.21s CPU      3.40s WALL (     563 calls)
     vloc_psi     :     13.88s CPU     14.21s WALL (     563 calls)
     add_vuspsi   :      2.65s CPU      2.66s WALL (     563 calls)

     General routines
     calbec       :      4.60s CPU      4.88s WALL (     733 calls)
     fft          :      0.34s CPU      0.38s WALL (     191 calls)
     ffts         :      0.24s CPU      0.24s WALL (     363 calls)
     fftw         :     15.48s CPU     15.84s WALL (   58608 calls)
     interpolate  :      0.05s CPU      0.05s WALL (      14 calls)
 
     Parallel routines
     fft_scatt_xy :      1.45s CPU      1.48s WALL (   59162 calls)
     fft_scatt_yz :      7.78s CPU      7.99s WALL (   59162 calls)
 
     PWSCF        :     55.20s CPU     56.39s WALL

 
   This run was terminated on:  23: 6:16  23Dec2021            

=------------------------------------------------------------------------------=
   JOB DONE.
=------------------------------------------------------------------------------=
