
     Program PWSCF v.6.4 starts on 24Dec2021 at 23: 0:56 

     This program is part of the open-source Quantum ESPRESSO suite
     for quantum simulation of materials; please cite
         "P. Giannozzi et al., J. Phys.:Condens. Matter 21 395502 (2009);
         "P. Giannozzi et al., J. Phys.:Condens. Matter 29 465901 (2017);
          URL http://www.quantum-espresso.org", 
     in publications or presentations arising from this work. More details at
     http://www.quantum-espresso.org/quote

     Parallel version (MPI), running on    40 processors

     MPI processes distributed on     1 nodes
     R & G space division:  proc/nbgrp/npool/nimage =      40
     Waiting for input...
     Reading input from standard input
Warning: card    &IONS ignored
Warning: card      ION_DYNAMICS = 'BFGS' ignored
Warning: card   / ignored
Warning: card    &CELL ignored
Warning: card      CELL_DYNAMICS = 'BFGS', ignored
Warning: card    / ignored

     Current dimensions of program PWSCF are:
     Max number of different atomic species (ntypx) = 10
     Max number of k-points (npk) =  40000
     Max angular momentum in pseudopotentials (lmaxx) =  3

     Subspace diagonalization in iterative solution of the eigenvalue problem:
     one sub-group per band group will be used
     scalapack distributed-memory algorithm (size of sub-group:  4*  4 procs)

 
     Parallelization info
     --------------------
     sticks:   dense  smooth     PW     G-vecs:    dense   smooth      PW
     Min         249     124     33                18452     6521     924
     Max         250     125     34                18456     6524     931
     Sum        9975    4971   1349               738105   260919   37077
 


     bravais-lattice index     =            0
     lattice parameter (alat)  =      18.6566  a.u.
     unit-cell volume          =    6397.9380 (a.u.)^3
     number of atoms/cell      =           48
     number of atomic types    =            2
     number of electrons       =       288.00
     number of Kohn-Sham states=          173
     kinetic-energy cutoff     =      45.0000  Ry
     charge density cutoff     =     360.0000  Ry
     convergence threshold     =      1.0E-06
     mixing beta               =       0.7000
     number of iterations used =            8  local-TF  mixing
     Exchange-correlation      = SLA PW GGX GGC ( 1  4  2  2 0 0)

     celldm(1)=  18.656581  celldm(2)=   0.000000  celldm(3)=   0.000000
     celldm(4)=   0.000000  celldm(5)=   0.000000  celldm(6)=   0.000000

     crystal axes: (cart. coord. in units of alat)
               a(1) = (   1.000000   0.000000   0.000000 )  
               a(2) = (   0.025057   0.999473   0.000000 )  
               a(3) = (  -0.015045  -0.015602   0.985763 )  

     reciprocal axes: (cart. coord. in units 2 pi/alat)
               b(1) = (  1.000000 -0.025070  0.014865 )  
               b(2) = (  0.000000  1.000527  0.015836 )  
               b(3) = (  0.000000  0.000000  1.014442 )  


     PseudoPot. # 1 for Mo read from file:
     ~/pseudo/Mo.pw91-n-van.UPF
     MD5 check sum: Not computed, couldn't open file
     Pseudo is Ultrasoft + core correction, Zval =  6.0
     Generated by new atomic code, or converted to UPF format
     Using radial grid of  965 points,  3 beta functions with: 
                l(1) =   1
                l(2) =   2
                l(3) =   2
     Q(r) pseudized with  8 coefficients,  rinner =    1.000   1.000   1.000
                                                       1.200   1.200

     PseudoPot. # 2 for S  read from file:
     ~/pseudo/S.pw91-van_ak.UPF
     MD5 check sum: Not computed, couldn't open file
     Pseudo is Ultrasoft, Zval =  6.0
     Generated by new atomic code, or converted to UPF format
     Using radial grid of  811 points,  6 beta functions with: 
                l(1) =   0
                l(2) =   0
                l(3) =   1
                l(4) =   1
                l(5) =   2
                l(6) =   2
     Q(r) pseudized with  8 coefficients,  rinner =    1.100   1.100   1.100
                                                       1.100   1.100

     atomic species   valence    mass     pseudopotential
        Mo             6.00    95.50000     Mo( 1.00)
        S              6.00    32.06500     S ( 1.00)

     No symmetry found



   Cartesian axes

     site n.     atom                  positions (alat units)
         1           Mo  tau(   1) = (   0.3770545   0.8338904   0.3796969  )
         2           Mo  tau(   2) = (   0.3877981   0.6434297   0.1473212  )
         3           Mo  tau(   3) = (   0.1858675   0.8506379   0.1507215  )
         4           Mo  tau(   4) = (   0.1708391   0.6324189   0.3554312  )
         5           Mo  tau(   5) = (   0.8870932   0.3574791   0.3520987  )
         6           Mo  tau(   6) = (   0.9014356   0.1404875   0.1409850  )
         7           Mo  tau(   7) = (   0.6709387   0.3785713   0.1423535  )
         8           Mo  tau(   8) = (   0.5314967   0.9868186   0.2301357  )
         9           Mo  tau(   9) = (   0.8849027   0.8398299   0.8473533  )
        10           Mo  tau(  10) = (   0.8767392   0.6319306   0.6371786  )
        11           Mo  tau(  11) = (   0.6639542   0.8366964   0.6477061  )
        12           Mo  tau(  12) = (   0.6564660   0.6347004   0.8493808  )
        13           Mo  tau(  13) = (   0.3697598   0.3419881   0.8476620  )
        14           Mo  tau(  14) = (   0.3643380   0.1234438   0.6490351  )
        15           Mo  tau(  15) = (   0.1616914   0.3387782   0.6416503  )
        16           Mo  tau(  16) = (   0.1605079   0.1232813   0.8487357  )
        17           S   tau(  17) = (   0.4123205   0.8682816   0.0573490  )
        18           S   tau(  18) = (   0.6495576   0.8747078   0.8843715  )
        19           S   tau(  19) = (   0.4086687   0.5897645   0.3866139  )
        20           S   tau(  20) = (   0.9168075   0.6094099   0.3829478  )
        21           S   tau(  21) = (   0.9413067   0.8812868   0.1130577  )
        22           S   tau(  22) = (   0.6402109   0.6249511   0.1146587  )
        23           S   tau(  23) = (   0.6331039   0.8464966   0.3830465  )
        24           S   tau(  24) = (   0.6390002   0.5981303   0.6065744  )
        25           S   tau(  25) = (   0.9096593   0.3775134   0.1155778  )
        26           S   tau(  26) = (   0.1274353   0.3579732   0.8803154  )
        27           S   tau(  27) = (   0.8911602   0.1219524   0.3758766  )
        28           S   tau(  28) = (   0.3726089   0.0943762   0.3852910  )
        29           S   tau(  29) = (   0.4117984   0.3957069   0.1127522  )
        30           S   tau(  30) = (   0.1456877   0.1045320   0.1109231  )
        31           S   tau(  31) = (   0.1383988   0.3801943   0.3838188  )
        32           S   tau(  32) = (   0.1249808   0.1042490   0.6112019  )
        33           S   tau(  33) = (   0.9057788   0.8715449   0.6065660  )
        34           S   tau(  34) = (   0.1288944   0.8703128   0.3872480  )
        35           S   tau(  35) = (   0.8982559   0.5977216   0.8758111  )
        36           S   tau(  36) = (   0.4051166   0.5920431   0.8747192  )
        37           S   tau(  37) = (   0.4080232   0.8664265   0.6279522  )
        38           S   tau(  38) = (   0.1324631   0.6000162   0.6116332  )
        39           S   tau(  39) = (   0.1352602   0.8647397   0.8773502  )
        40           S   tau(  40) = (   0.1508201   0.6099096   0.1155247  )
        41           S   tau(  41) = (   0.4028736   0.3640436   0.6085765  )
        42           S   tau(  42) = (   0.6501041   0.3633337   0.3783766  )
        43           S   tau(  43) = (   0.3994802   0.1031189   0.8841337  )
        44           S   tau(  44) = (   0.9009071   0.0910695   0.8716052  )
        45           S   tau(  45) = (   0.9128828   0.3780173   0.6134720  )
        46           S   tau(  46) = (   0.6129702   0.0877370   0.6120099  )
        47           S   tau(  47) = (   0.6263902   0.3805991   0.8741350  )
        48           S   tau(  48) = (   0.6563168   0.1366409   0.1183727  )

     number of k points=     8  Marzari-Vanderbilt smearing, width (Ry)=  0.0200
                       cart. coord. in units 2pi/alat
        k(    1) = (   0.0000000   0.0000000   0.0000000), wk =   0.2500000
        k(    2) = (   0.0000000   0.0000000  -0.5072212), wk =   0.2500000
        k(    3) = (   0.0000000  -0.5002635  -0.0079178), wk =   0.2500000
        k(    4) = (   0.0000000  -0.5002635  -0.5151389), wk =   0.2500000
        k(    5) = (  -0.5000000   0.0125350  -0.0074325), wk =   0.2500000
        k(    6) = (  -0.5000000   0.0125350  -0.5146537), wk =   0.2500000
        k(    7) = (  -0.5000000  -0.4877284  -0.0153503), wk =   0.2500000
        k(    8) = (  -0.5000000  -0.4877284  -0.5225715), wk =   0.2500000

     Dense  grid:   738105 G-vectors     FFT dimensions: ( 120, 120, 120)

     Smooth grid:   260919 G-vectors     FFT dimensions: (  80,  80,  80)

     Estimated max dynamical RAM per process >     141.94 MB

     Estimated total dynamical RAM >       5.54 GB

     Initial potential from superposition of free atoms

     starting charge  287.97477, renormalised to  288.00000
     Starting wfcs are  272 randomized atomic wfcs

     total cpu time spent up to now is        8.6 secs

     Self-consistent Calculation

     iteration #  1     ecut=    45.00 Ry     beta= 0.70
     Davidson diagonalization with overlap
     ethr =  1.00E-02,  avg # of iterations =  2.0

     total cpu time spent up to now is       24.0 secs

     total energy              =   -1123.88494315 Ry
     Harris-Foulkes estimate   =   -1128.13044120 Ry
     estimated scf accuracy    <      11.12740211 Ry

     iteration #  2     ecut=    45.00 Ry     beta= 0.70
     Davidson diagonalization with overlap
     ethr =  3.86E-03,  avg # of iterations =  2.0

     total cpu time spent up to now is       38.8 secs

     total energy              =   -1125.61977867 Ry
     Harris-Foulkes estimate   =   -1126.52446521 Ry
     estimated scf accuracy    <       4.43012253 Ry

     iteration #  3     ecut=    45.00 Ry     beta= 0.70
     Davidson diagonalization with overlap
     ethr =  1.54E-03,  avg # of iterations =  1.5

     total cpu time spent up to now is       50.2 secs

     total energy              =   -1126.05338062 Ry
     Harris-Foulkes estimate   =   -1126.13518386 Ry
     estimated scf accuracy    <       0.69644527 Ry

     iteration #  4     ecut=    45.00 Ry     beta= 0.70
     Davidson diagonalization with overlap
     ethr =  2.42E-04,  avg # of iterations =  3.0

     total cpu time spent up to now is       63.4 secs

     total energy              =   -1126.08299434 Ry
     Harris-Foulkes estimate   =   -1126.12399136 Ry
     estimated scf accuracy    <       0.12306838 Ry

     iteration #  5     ecut=    45.00 Ry     beta= 0.70
     Davidson diagonalization with overlap
     ethr =  4.27E-05,  avg # of iterations =  6.6

     total cpu time spent up to now is       86.7 secs

     total energy              =   -1126.11145516 Ry
     Harris-Foulkes estimate   =   -1126.11649707 Ry
     estimated scf accuracy    <       0.03183491 Ry

     iteration #  6     ecut=    45.00 Ry     beta= 0.70
     Davidson diagonalization with overlap
     c_bands:  1 eigenvalues not converged
     ethr =  1.11E-05,  avg # of iterations = 13.8

     total cpu time spent up to now is      110.6 secs

     total energy              =   -1126.11412589 Ry
     Harris-Foulkes estimate   =   -1126.11519339 Ry
     estimated scf accuracy    <       0.00876577 Ry

     iteration #  7     ecut=    45.00 Ry     beta= 0.70
     Davidson diagonalization with overlap
     c_bands:  1 eigenvalues not converged
     c_bands:  1 eigenvalues not converged
     ethr =  3.04E-06,  avg # of iterations = 10.9

     total cpu time spent up to now is      130.5 secs

     total energy              =   -1126.11454682 Ry
     Harris-Foulkes estimate   =   -1126.11473597 Ry
     estimated scf accuracy    <       0.00093438 Ry

     iteration #  8     ecut=    45.00 Ry     beta= 0.70
     Davidson diagonalization with overlap
     ethr =  3.24E-07,  avg # of iterations =  9.6

     total cpu time spent up to now is      157.6 secs

     total energy              =   -1126.11475660 Ry
     Harris-Foulkes estimate   =   -1126.11480707 Ry
     estimated scf accuracy    <       0.00057879 Ry

     iteration #  9     ecut=    45.00 Ry     beta= 0.70
     Davidson diagonalization with overlap
     ethr =  2.01E-07,  avg # of iterations =  1.0

     total cpu time spent up to now is      168.6 secs

     total energy              =   -1126.11477534 Ry
     Harris-Foulkes estimate   =   -1126.11479380 Ry
     estimated scf accuracy    <       0.00021699 Ry

     iteration # 10     ecut=    45.00 Ry     beta= 0.70
     Davidson diagonalization with overlap
     ethr =  7.53E-08,  avg # of iterations =  1.0

     total cpu time spent up to now is      179.7 secs

     total energy              =   -1126.11478347 Ry
     Harris-Foulkes estimate   =   -1126.11478742 Ry
     estimated scf accuracy    <       0.00002313 Ry

     iteration # 11     ecut=    45.00 Ry     beta= 0.70
     Davidson diagonalization with overlap
     ethr =  8.03E-09,  avg # of iterations =  4.0

     total cpu time spent up to now is      197.9 secs

     total energy              =   -1126.11478722 Ry
     Harris-Foulkes estimate   =   -1126.11479010 Ry
     estimated scf accuracy    <       0.00002069 Ry

     iteration # 12     ecut=    45.00 Ry     beta= 0.70
     Davidson diagonalization with overlap
     ethr =  7.18E-09,  avg # of iterations =  1.9

     total cpu time spent up to now is      209.7 secs

     total energy              =   -1126.11478883 Ry
     Harris-Foulkes estimate   =   -1126.11478900 Ry
     estimated scf accuracy    <       0.00000161 Ry

     iteration # 13     ecut=    45.00 Ry     beta= 0.70
     Davidson diagonalization with overlap
     ethr =  5.57E-10,  avg # of iterations =  3.9

     total cpu time spent up to now is      225.2 secs

     End of self-consistent calculation

          k = 0.0000 0.0000 0.0000 ( 32587 PWs)   bands (ev):

    -7.0681  -6.4940  -6.3254  -6.2763  -6.1596  -6.1235  -6.0128  -5.8492
    -5.7946  -5.7712  -5.7514  -5.7312  -5.7201  -5.6670  -5.6141  -5.5329
    -5.5082  -5.4665  -5.3889  -5.2407  -5.1311  -5.0578  -4.9964  -4.9860
    -4.8243  -4.7933  -4.7169  -4.6970  -4.6786  -4.6617  -4.5648  -4.3829
     1.0305   1.2543   1.2980   1.3069   1.4365   1.4793   1.5745   1.9075
     1.9389   2.0168   2.0356   2.0568   2.1429   2.2117   2.2661   2.2843
     2.3166   2.3563   2.3849   2.5060   2.5490   2.5723   2.5969   2.6153
     2.8195   2.8637   2.9371   3.0102   3.0312   3.1090   3.1612   3.1709
     3.1837   3.2955   3.3086   3.3503   3.4168   3.4476   3.4624   3.5028
     3.5231   3.5369   3.5640   3.5765   3.6104   3.6153   3.6450   3.6595
     3.6781   3.6926   3.7251   3.7505   3.7877   3.8094   3.8484   3.8777
     3.9301   3.9477   3.9928   3.9987   4.0623   4.0757   4.1551   4.2154
     4.2800   4.3564   4.4107   4.4756   4.6154   4.6393   4.6753   4.7286
     4.7703   4.8417   4.8741   4.9261   5.0635   5.1077   5.1664   5.2378
     5.2928   5.3770   5.5007   5.5456   5.5862   5.6135   5.6325   5.7295
     5.7522   5.8326   5.8926   5.9958   6.1563   6.2393   6.2761   6.3191
     6.3471   6.3494   6.3619   6.3837   6.4137   6.4155   6.5051   6.5391
     6.6967   6.7869   6.8017   6.8398   7.0135   7.0753   7.1354   7.1477
     7.1694   7.2566   7.2875   7.3358   7.3534   7.4838   7.5114   7.6117
     7.8099   7.9680   7.9944   8.2757   8.3024   8.4274   8.6462   8.6532
     8.7707   8.8686   8.8947   8.9199   8.9570   8.9906   9.0105   9.0356
     9.0748   9.1180   9.1377   9.2327   9.3042

          k = 0.0000 0.0000-0.5072 ( 32560 PWs)   bands (ev):

    -6.9665  -6.6377  -6.3714  -6.1539  -6.1480  -6.1015  -6.0450  -6.0079
    -5.8370  -5.8204  -5.7612  -5.7367  -5.6870  -5.6168  -5.6075  -5.4916
    -5.4853  -5.4054  -5.3794  -5.2321  -5.1213  -5.0347  -5.0130  -4.9961
    -4.8296  -4.8109  -4.7534  -4.6994  -4.6711  -4.6586  -4.5244  -4.3718
     1.1677   1.3845   1.4038   1.5136   1.5503   1.6195   1.6601   1.7217
     1.8250   1.9046   1.9948   2.0590   2.0764   2.0952   2.2125   2.2354
     2.2458   2.3435   2.4652   2.4876   2.5147   2.5888   2.6065   2.7206
     2.7341   2.7447   2.8548   2.8728   2.9318   2.9481   3.0706   3.0882
     3.1197   3.1440   3.1880   3.2670   3.2758   3.3167   3.3612   3.3750
     3.4246   3.4486   3.4735   3.5505   3.5764   3.5996   3.6636   3.6996
     3.7419   3.7677   3.8050   3.8267   3.8664   3.9502   3.9603   3.9893
     4.0515   4.0617   4.0749   4.1056   4.1647   4.2127   4.2429   4.2936
     4.3463   4.3654   4.3964   4.4221   4.5032   4.5997   4.6999   4.7453
     4.8266   4.8802   4.9766   5.0160   5.1066   5.1442   5.3053   5.3227
     5.3771   5.3992   5.4107   5.4297   5.5927   5.6758   5.7845   5.8496
     5.8778   5.9195   5.9282   5.9977   6.0465   6.1217   6.2062   6.2217
     6.3318   6.3359   6.3743   6.4034   6.4216   6.4821   6.5029   6.5492
     6.6494   6.7628   6.8448   6.9197   6.9746   6.9882   7.0619   7.1230
     7.1431   7.1556   7.2081   7.2340   7.3343   7.3583   7.3788   7.5983
     7.8972   7.9132   8.0956   8.1272   8.3662   8.3724   8.6902   8.8148
     8.8793   8.8971   8.9504   8.9813   9.0319   9.0505   9.0757   9.1630
     9.2249   9.2367   9.2474   9.3208   9.3705

          k = 0.0000-0.5003-0.0079 ( 32642 PWs)   bands (ev):

    -6.9308  -6.7206  -6.3302  -6.1765  -6.1547  -6.1301  -6.0268  -5.9878
    -5.8568  -5.7916  -5.7414  -5.7049  -5.6358  -5.6070  -5.5629  -5.5308
    -5.5005  -5.4543  -5.4293  -5.2023  -5.1775  -5.0372  -5.0107  -4.9629
    -4.8281  -4.8151  -4.7478  -4.6934  -4.6734  -4.6163  -4.5575  -4.3746
     1.0951   1.3089   1.4189   1.5111   1.5496   1.5904   1.6802   1.7308
     1.7708   1.8419   1.9764   1.9898   2.0766   2.1845   2.2256   2.2559
     2.3297   2.3975   2.4489   2.4762   2.5277   2.5596   2.6118   2.6751
     2.7201   2.7747   2.8262   2.8699   2.9334   2.9697   2.9786   3.1295
     3.1460   3.1902   3.2146   3.2565   3.2936   3.3224   3.3669   3.4130
     3.4705   3.4882   3.5433   3.5626   3.5848   3.6276   3.6533   3.6955
     3.7316   3.7727   3.7870   3.8417   3.8948   3.9097   3.9492   3.9704
     3.9993   4.0342   4.0904   4.1582   4.1740   4.2120   4.2949   4.3646
     4.3753   4.4228   4.4482   4.5190   4.5697   4.5914   4.6940   4.7483
     4.7889   4.8637   4.9416   5.0507   5.0795   5.1273   5.2140   5.2963
     5.3491   5.3916   5.4524   5.4978   5.5548   5.5681   5.6398   5.7625
     5.8646   5.8830   5.9605   5.9854   6.0929   6.1305   6.1761   6.2423
     6.2889   6.3216   6.4001   6.4107   6.4400   6.4963   6.5036   6.5410
     6.6370   6.7050   6.7693   6.8416   6.8659   7.0411   7.0883   7.1263
     7.1828   7.1965   7.2264   7.3442   7.3799   7.3941   7.4430   7.5452
     7.7884   7.9868   8.0408   8.2634   8.3231   8.5020   8.6560   8.8284
     8.8794   8.9155   8.9359   8.9530   8.9844   9.0450   9.0513   9.1460
     9.1596   9.2655   9.2789   9.3173   9.3378

          k = 0.0000-0.5003-0.5151 ( 32594 PWs)   bands (ev):

    -6.8499  -6.6041  -6.4996  -6.3829  -6.1538  -6.0792  -5.9570  -5.9417
    -5.8720  -5.8560  -5.7780  -5.7144  -5.6593  -5.6187  -5.5890  -5.5320
    -5.4715  -5.3977  -5.3469  -5.1926  -5.1308  -5.0302  -5.0148  -4.9902
    -4.8283  -4.8147  -4.7437  -4.6981  -4.6850  -4.6157  -4.5418  -4.3677
     1.1730   1.4181   1.5430   1.5828   1.6478   1.7006   1.7686   1.8008
     1.8405   1.8805   1.9451   1.9852   2.0471   2.1264   2.1665   2.1952
     2.2232   2.2676   2.3065   2.3302   2.3512   2.4571   2.5522   2.6051
     2.6970   2.7460   2.8971   2.9198   2.9631   3.0141   3.0486   3.0549
     3.1041   3.1775   3.2386   3.2603   3.2916   3.3034   3.3222   3.3789
     3.4152   3.4224   3.4650   3.5066   3.5272   3.5768   3.6116   3.6335
     3.6701   3.6821   3.6883   3.7541   3.7977   3.8609   3.8888   3.9557
     4.0143   4.1349   4.1762   4.2064   4.2428   4.2625   4.2770   4.3387
     4.3662   4.4403   4.4990   4.5971   4.6119   4.6669   4.7874   4.8355
     4.8859   4.9491   5.0145   5.0652   5.1133   5.2458   5.2917   5.3516
     5.4010   5.4288   5.4919   5.5742   5.6773   5.7282   5.7386   5.7826
     5.8941   5.9302   5.9990   6.0484   6.1102   6.1222   6.1902   6.2239
     6.2576   6.2713   6.3213   6.3643   6.3886   6.4139   6.4311   6.5161
     6.6248   6.6500   6.7144   6.8194   6.9679   6.9817   7.0356   7.1153
     7.1710   7.1927   7.2201   7.2774   7.3098   7.3684   7.3904   7.5627
     7.8461   7.9722   8.0459   8.1634   8.3267   8.5187   8.7281   8.8109
     8.8887   8.9644   8.9880   9.0028   9.0587   9.1007   9.1221   9.1862
     9.2091   9.2546   9.3311   9.3698   9.3811

          k =-0.5000 0.0125-0.0074 ( 32638 PWs)   bands (ev):

    -6.9306  -6.7241  -6.3255  -6.1791  -6.1490  -6.1213  -6.0392  -5.9883
    -5.8547  -5.7726  -5.7429  -5.7006  -5.6724  -5.5872  -5.5797  -5.5345
    -5.5196  -5.4449  -5.3977  -5.2250  -5.1730  -5.0309  -4.9976  -4.9752
    -4.8435  -4.8027  -4.7415  -4.6925  -4.6612  -4.6254  -4.5612  -4.3762
     1.0909   1.3079   1.4220   1.5094   1.5365   1.5821   1.6735   1.7386
     1.7878   1.8542   1.9896   2.0166   2.0747   2.1866   2.2274   2.2712
     2.3156   2.3980   2.4363   2.4614   2.5164   2.5617   2.6031   2.6904
     2.7091   2.7736   2.8237   2.8682   2.9094   2.9772   2.9884   3.1139
     3.1307   3.1849   3.2091   3.2737   3.2882   3.3281   3.3630   3.4059
     3.4716   3.4866   3.5332   3.5815   3.5873   3.6152   3.6774   3.7113
     3.7229   3.7805   3.7882   3.8305   3.8843   3.9092   3.9391   3.9591
     3.9992   4.0454   4.0810   4.1544   4.1738   4.2217   4.2954   4.3563
     4.3878   4.4156   4.4648   4.5271   4.5950   4.6353   4.6789   4.7594
     4.7893   4.8906   4.9475   5.0197   5.0809   5.1015   5.2044   5.2967
     5.3178   5.3835   5.4332   5.5116   5.5554   5.5795   5.6656   5.7503
     5.8449   5.8888   5.9499   5.9851   6.1079   6.1399   6.1813   6.2442
     6.2865   6.3341   6.3829   6.4087   6.4283   6.4963   6.5203   6.5546
     6.6310   6.6943   6.7522   6.8539   6.8732   7.0296   7.0806   7.1277
     7.1756   7.2068   7.2301   7.3445   7.3862   7.4018   7.4418   7.5492
     7.7793   7.9823   8.0543   8.2601   8.3344   8.4789   8.7444   8.7764
     8.8769   8.9066   8.9558   8.9613   8.9850   9.0006   9.0539   9.1181
     9.1910   9.2702   9.2921   9.3031   9.3461

          k =-0.5000 0.0125-0.5147 ( 32592 PWs)   bands (ev):

    -6.8499  -6.6040  -6.5029  -6.3862  -6.1541  -6.0608  -5.9568  -5.9430
    -5.8704  -5.8395  -5.7931  -5.7328  -5.6701  -5.6033  -5.5987  -5.5209
    -5.4726  -5.3825  -5.3583  -5.2014  -5.1314  -5.0352  -5.0215  -4.9773
    -4.8296  -4.8061  -4.7570  -4.6906  -4.6700  -4.6298  -4.5372  -4.3699
     1.1708   1.4194   1.5294   1.5830   1.6463   1.6928   1.7710   1.7997
     1.8415   1.9040   1.9420   1.9823   2.0590   2.1334   2.1625   2.2127
     2.2248   2.2713   2.3053   2.3342   2.3631   2.4596   2.5570   2.6142
     2.6714   2.7265   2.8855   2.9169   2.9504   3.0009   3.0229   3.0615
     3.1004   3.1742   3.2140   3.2675   3.2899   3.3230   3.3361   3.3927
     3.4051   3.4236   3.4624   3.4988   3.5256   3.6072   3.6227   3.6352
     3.6676   3.6704   3.7030   3.7556   3.7911   3.8510   3.8811   3.9507
     4.0267   4.1421   4.1497   4.2044   4.2268   4.2552   4.2927   4.3427
     4.3900   4.4395   4.5008   4.6198   4.6514   4.6615   4.7891   4.8348
     4.8866   4.9086   4.9944   5.0803   5.1152   5.2190   5.2888   5.3844
     5.3949   5.4088   5.4981   5.5777   5.6740   5.7230   5.7349   5.7732
     5.9016   5.9724   6.0118   6.0405   6.1115   6.1266   6.1671   6.2033
     6.2528   6.2744   6.3266   6.3610   6.4006   6.4148   6.4562   6.4921
     6.6309   6.6394   6.7327   6.8281   6.9693   6.9935   7.0203   7.1029
     7.1724   7.1891   7.2154   7.2876   7.3219   7.3571   7.3851   7.5553
     7.8474   7.9696   8.0728   8.1485   8.3364   8.5039   8.7008   8.8084
     8.8939   8.9744   8.9973   9.0115   9.0496   9.0738   9.1509   9.1852
     9.2193   9.2647   9.3101   9.3675   9.4005

          k =-0.5000-0.4877-0.0154 ( 32634 PWs)   bands (ev):

    -6.8253  -6.5540  -6.5333  -6.4960  -6.2271  -5.9817  -5.9655  -5.8787
    -5.8385  -5.7807  -5.7747  -5.7585  -5.6820  -5.6001  -5.5686  -5.5393
    -5.4720  -5.4425  -5.3987  -5.1785  -5.1337  -5.0573  -4.9854  -4.9692
    -4.8477  -4.8283  -4.7668  -4.6723  -4.6502  -4.6187  -4.5518  -4.3747
     1.1498   1.4454   1.4559   1.5886   1.6156   1.6435   1.8123   1.8256
     1.8595   1.8751   1.9127   1.9149   1.9961   2.0331   2.1708   2.2000
     2.2649   2.2720   2.3141   2.3751   2.3955   2.4717   2.5372   2.5591
     2.6462   2.7096   2.8363   2.9266   3.0209   3.0576   3.0667   3.1529
     3.1772   3.1778   3.2010   3.2889   3.3071   3.3299   3.3713   3.3967
     3.4309   3.4334   3.4676   3.5087   3.5231   3.5853   3.5997   3.6455
     3.6842   3.7463   3.7611   3.7798   3.8106   3.8564   3.9018   3.9234
     4.0343   4.0983   4.1345   4.1590   4.2516   4.2633   4.2849   4.3668
     4.4578   4.4783   4.5458   4.6001   4.6315   4.7617   4.7733   4.8187
     4.9097   4.9474   5.0433   5.0631   5.1189   5.1961   5.2205   5.3145
     5.3771   5.3914   5.5285   5.6087   5.6246   5.6688   5.6989   5.7303
     5.8223   5.8533   5.9702   6.0736   6.0942   6.1236   6.1922   6.2209
     6.2374   6.2976   6.3103   6.3718   6.3921   6.4271   6.4394   6.4907
     6.4982   6.6233   6.7792   6.8311   6.9379   6.9812   7.0320   7.1306
     7.1528   7.1626   7.2501   7.2859   7.3722   7.4584   7.4806   7.5622
     7.7436   7.9980   8.0888   8.1994   8.3577   8.5052   8.7185   8.7912
     8.8514   8.8670   8.9454   9.0235   9.0593   9.0790   9.1229   9.1711
     9.2108   9.2664   9.3243   9.3758   9.4136

          k =-0.5000-0.4877-0.5226 ( 32672 PWs)   bands (ev):

    -6.7607  -6.5055  -6.4755  -6.4108  -6.2621  -6.2431  -6.1472  -6.0491
    -5.8144  -5.7660  -5.7175  -5.6606  -5.6111  -5.5980  -5.5699  -5.5630
    -5.4983  -5.3535  -5.3389  -5.1899  -5.0914  -5.0471  -4.9838  -4.9660
    -4.8277  -4.8160  -4.7223  -4.7024  -4.6679  -4.6340  -4.5682  -4.3759
     1.1952   1.4852   1.5291   1.6190   1.6219   1.7496   1.8532   1.8738
     1.9492   1.9688   1.9985   2.0407   2.0692   2.0775   2.1961   2.2025
     2.2343   2.2692   2.2847   2.3048   2.3420   2.3705   2.3800   2.4773
     2.4969   2.6268   2.7000   2.7239   2.8696   2.9562   3.0140   3.0668
     3.0915   3.1375   3.1675   3.2214   3.2975   3.3302   3.3943   3.4637
     3.4744   3.4821   3.4971   3.5539   3.5730   3.5979   3.6283   3.6430
     3.6945   3.7080   3.7439   3.7596   3.7916   3.8152   3.8336   3.8748
     3.9307   3.9974   4.0235   4.0385   4.1924   4.2635   4.2771   4.3163
     4.4840   4.6284   4.6616   4.6778   4.7696   4.8132   4.8773   4.9353
     4.9945   5.0368   5.0901   5.1069   5.1991   5.3324   5.3449   5.3832
     5.4295   5.4556   5.4794   5.5730   5.6013   5.6276   5.6809   5.7378
     5.7560   5.8360   5.9468   6.0190   6.1147   6.1424   6.1660   6.2001
     6.2471   6.3203   6.3594   6.3986   6.4167   6.5039   6.5123   6.5323
     6.5672   6.6586   6.7777   6.8306   6.9047   6.9655   6.9982   7.0709
     7.1248   7.1371   7.2548   7.3264   7.3937   7.4342   7.4379   7.5716
     7.8373   7.9637   8.0914   8.1633   8.3021   8.4723   8.7235   8.8458
     8.9306   8.9770   8.9964   9.0403   9.0491   9.0830   9.1066   9.1394
     9.1882   9.2292   9.3094   9.3356   9.3492

     the Fermi energy is     7.1333 ev

!    total energy              =   -1126.11478847 Ry
     Harris-Foulkes estimate   =   -1126.11478918 Ry
     estimated scf accuracy    <       0.00000088 Ry

     The total energy is the sum of the following terms:

     one-electron contribution =      65.14373489 Ry
     hartree contribution      =     138.33861446 Ry
     xc contribution           =    -444.65152390 Ry
     ewald contribution        =    -884.93227599 Ry
     smearing contrib. (-TS)   =      -0.01333793 Ry

     convergence has been achieved in  13 iterations

     Forces acting on atoms (cartesian axes, Ry/au):

     atom    1 type  1   force =    -0.03313010   -0.01538233    0.01350217
     atom    2 type  1   force =     0.00618315   -0.02176220   -0.00678035
     atom    3 type  1   force =    -0.01092150   -0.00367062   -0.02497226
     atom    4 type  1   force =    -0.00041515    0.00418505    0.01632241
     atom    5 type  1   force =    -0.01442918   -0.00876553   -0.00624241
     atom    6 type  1   force =    -0.01704915    0.00871605    0.01115000
     atom    7 type  1   force =     0.01757853   -0.01099809    0.01363114
     atom    8 type  1   force =    -0.00028587    0.00086022    0.01085431
     atom    9 type  1   force =     0.00463147   -0.00568719   -0.01036407
     atom   10 type  1   force =     0.00958600   -0.00951245   -0.00383359
     atom   11 type  1   force =     0.01138322    0.04129546   -0.00846825
     atom   12 type  1   force =     0.01888083   -0.02746456   -0.01586034
     atom   13 type  1   force =     0.00644042    0.00211238    0.00051388
     atom   14 type  1   force =     0.04402287    0.00507828   -0.01903758
     atom   15 type  1   force =    -0.00429695    0.02961843   -0.01452730
     atom   16 type  1   force =    -0.03312261   -0.01388388    0.00326131
     atom   17 type  2   force =    -0.00146598    0.00711996    0.02823058
     atom   18 type  2   force =    -0.01148578    0.00337071    0.00023003
     atom   19 type  2   force =    -0.00659779    0.02451443   -0.00395403
     atom   20 type  2   force =    -0.00867271    0.00310103   -0.00324917
     atom   21 type  2   force =    -0.02490678   -0.00202983    0.01056722
     atom   22 type  2   force =     0.01756096   -0.00198453    0.01872630
     atom   23 type  2   force =     0.01353311    0.00058028   -0.00817921
     atom   24 type  2   force =    -0.00459897   -0.00274407    0.01158059
     atom   25 type  2   force =     0.02797644    0.03718670   -0.02627635
     atom   26 type  2   force =     0.00866555    0.01982167    0.00064965
     atom   27 type  2   force =     0.00594574   -0.01337668    0.00278019
     atom   28 type  2   force =     0.00002543    0.00610882   -0.01450766
     atom   29 type  2   force =     0.00109410   -0.01646192    0.01095877
     atom   30 type  2   force =     0.00307025    0.01046691    0.02606011
     atom   31 type  2   force =     0.00785978   -0.00780843    0.00434290
     atom   32 type  2   force =    -0.00623420   -0.01735182   -0.00965062
     atom   33 type  2   force =    -0.00700277   -0.00630880    0.01508101
     atom   34 type  2   force =     0.03756703   -0.00558280   -0.00013156
     atom   35 type  2   force =    -0.00242889    0.00761428    0.00109280
     atom   36 type  2   force =    -0.00799527    0.01278266   -0.00431122
     atom   37 type  2   force =    -0.00067479   -0.00548199   -0.00826006
     atom   38 type  2   force =     0.00489138   -0.00721722    0.00335712
     atom   39 type  2   force =     0.01551289    0.00342815   -0.00703669
     atom   40 type  2   force =    -0.00792492    0.00714153    0.00070842
     atom   41 type  2   force =    -0.01015979   -0.00597261    0.00980991
     atom   42 type  2   force =    -0.00262244    0.00951890   -0.00436043
     atom   43 type  2   force =     0.00011759    0.00090653    0.00140898
     atom   44 type  2   force =    -0.00573926    0.01277847   -0.00822208
     atom   45 type  2   force =    -0.01192423   -0.00282760   -0.00685741
     atom   46 type  2   force =    -0.01749263   -0.01501080    0.00598554
     atom   47 type  2   force =    -0.00127927   -0.01676356   -0.01010510
     atom   48 type  2   force =    -0.00966976   -0.01425738    0.00438237

     Total force =     0.164155     Total SCF correction =     0.001933
 
     init_run     :      7.63s CPU      7.85s WALL (       1 calls)
     electrons    :    212.39s CPU    216.61s WALL (       1 calls)
     forces       :      4.72s CPU      4.88s WALL (       1 calls)

     Called by init_run:
     wfcinit      :      5.65s CPU      5.77s WALL (       1 calls)
     potinit      :      0.50s CPU      0.51s WALL (       1 calls)
     hinit0       :      0.68s CPU      0.71s WALL (       1 calls)

     Called by electrons:
     c_bands      :    182.63s CPU    185.08s WALL (      13 calls)
     sum_band     :     24.14s CPU     25.42s WALL (      13 calls)
     v_of_rho     :      1.07s CPU      1.12s WALL (      14 calls)
     newd         :      3.98s CPU      4.42s WALL (      14 calls)
     mix_rho      :      0.76s CPU      0.77s WALL (      13 calls)

     Called by c_bands:
     init_us_2    :      3.69s CPU      3.71s WALL (     224 calls)
     cegterg      :    171.85s CPU    174.25s WALL (     104 calls)

     Called by sum_band:
     sum_band:bec :      0.30s CPU      0.30s WALL (     104 calls)
     addusdens    :      6.44s CPU      7.33s WALL (      13 calls)

     Called by *egterg:
     h_psi        :     76.78s CPU     78.21s WALL (     601 calls)
     s_psi        :     18.67s CPU     18.68s WALL (     601 calls)
     g_psi        :      0.42s CPU      0.43s WALL (     489 calls)
     cdiaghg      :     45.92s CPU     46.76s WALL (     593 calls)

     Called by h_psi:
     h_psi:pot    :     75.75s CPU     77.16s WALL (     601 calls)
     h_psi:calbec :     20.88s CPU     21.54s WALL (     601 calls)
     vloc_psi     :     35.74s CPU     36.47s WALL (     601 calls)
     add_vuspsi   :     19.12s CPU     19.15s WALL (     601 calls)

     General routines
     calbec       :     30.53s CPU     31.54s WALL (     737 calls)
     fft          :      0.91s CPU      0.98s WALL (     191 calls)
     ffts         :      0.29s CPU      0.30s WALL (     291 calls)
     fftw         :     39.63s CPU     40.40s WALL (  108084 calls)
     interpolate  :      0.09s CPU      0.10s WALL (      14 calls)
 
     Parallel routines
     fft_scatt_xy :      3.61s CPU      3.68s WALL (  108566 calls)
     fft_scatt_yz :     21.24s CPU     21.71s WALL (  108566 calls)
 
     PWSCF        :   3m45.43s CPU   3m50.18s WALL

 
   This run was terminated on:  23: 4:46  24Dec2021            

=------------------------------------------------------------------------------=
   JOB DONE.
=------------------------------------------------------------------------------=
