
     Program PWSCF v.6.4 starts on 24Dec2021 at 21:15:22 

     This program is part of the open-source Quantum ESPRESSO suite
     for quantum simulation of materials; please cite
         "P. Giannozzi et al., J. Phys.:Condens. Matter 21 395502 (2009);
         "P. Giannozzi et al., J. Phys.:Condens. Matter 29 465901 (2017);
          URL http://www.quantum-espresso.org", 
     in publications or presentations arising from this work. More details at
     http://www.quantum-espresso.org/quote

     Parallel version (MPI), running on    40 processors

     MPI processes distributed on     1 nodes
     R & G space division:  proc/nbgrp/npool/nimage =      40
     Waiting for input...
     Reading input from standard input
Warning: card    &IONS ignored
Warning: card      ION_DYNAMICS = 'BFGS' ignored
Warning: card   / ignored
Warning: card    &CELL ignored
Warning: card      CELL_DYNAMICS = 'BFGS', ignored
Warning: card    / ignored

     Current dimensions of program PWSCF are:
     Max number of different atomic species (ntypx) = 10
     Max number of k-points (npk) =  40000
     Max angular momentum in pseudopotentials (lmaxx) =  3

     Subspace diagonalization in iterative solution of the eigenvalue problem:
     one sub-group per band group will be used
     scalapack distributed-memory algorithm (size of sub-group:  4*  4 procs)

 
     Parallelization info
     --------------------
     sticks:   dense  smooth     PW     G-vecs:    dense   smooth      PW
     Min         242     121     32                18319     6476     913
     Max         243     122     33                18322     6480     919
     Sum        9685    4847   1309               732845   259133   36675
 


     bravais-lattice index     =            0
     lattice parameter (alat)  =      18.2737  a.u.
     unit-cell volume          =    6353.8789 (a.u.)^3
     number of atoms/cell      =           42
     number of atomic types    =            2
     number of electrons       =       252.00
     number of Kohn-Sham states=          151
     kinetic-energy cutoff     =      45.0000  Ry
     charge density cutoff     =     360.0000  Ry
     convergence threshold     =      1.0E-06
     mixing beta               =       0.7000
     number of iterations used =            8  local-TF  mixing
     Exchange-correlation      = SLA PW GGX GGC ( 1  4  2  2 0 0)

     celldm(1)=  18.273698  celldm(2)=   0.000000  celldm(3)=   0.000000
     celldm(4)=   0.000000  celldm(5)=   0.000000  celldm(6)=   0.000000

     crystal axes: (cart. coord. in units of alat)
               a(1) = (   1.000000   0.000000   0.000000 )  
               a(2) = (  -0.004229   1.012634   0.000000 )  
               a(3) = (   0.028493   0.075452   1.028270 )  

     reciprocal axes: (cart. coord. in units 2 pi/alat)
               b(1) = (  1.000000  0.004177 -0.028016 )  
               b(2) = (  0.000000  0.987524 -0.072462 )  
               b(3) = (  0.000000  0.000000  0.972507 )  


     PseudoPot. # 1 for Mo read from file:
     ~/pseudo/Mo.pw91-n-van.UPF
     MD5 check sum: Not computed, couldn't open file
     Pseudo is Ultrasoft + core correction, Zval =  6.0
     Generated by new atomic code, or converted to UPF format
     Using radial grid of  965 points,  3 beta functions with: 
                l(1) =   1
                l(2) =   2
                l(3) =   2
     Q(r) pseudized with  8 coefficients,  rinner =    1.000   1.000   1.000
                                                       1.200   1.200

     PseudoPot. # 2 for S  read from file:
     ~/pseudo/S.pw91-van_ak.UPF
     MD5 check sum: Not computed, couldn't open file
     Pseudo is Ultrasoft, Zval =  6.0
     Generated by new atomic code, or converted to UPF format
     Using radial grid of  811 points,  6 beta functions with: 
                l(1) =   0
                l(2) =   0
                l(3) =   1
                l(4) =   1
                l(5) =   2
                l(6) =   2
     Q(r) pseudized with  8 coefficients,  rinner =    1.100   1.100   1.100
                                                       1.100   1.100

     atomic species   valence    mass     pseudopotential
        Mo             6.00    95.50000     Mo( 1.00)
        S              6.00    32.06500     S ( 1.00)

     No symmetry found



   Cartesian axes

     site n.     atom                  positions (alat units)
         1           Mo  tau(   1) = (   0.1402735   0.3950104   0.4026756  )
         2           Mo  tau(   2) = (   0.3803121   0.3897910   0.1458569  )
         3           Mo  tau(   3) = (   0.1546336   0.1810025   0.1810210  )
         4           Mo  tau(   4) = (   0.3774643   0.1783922   0.3723297  )
         5           Mo  tau(   5) = (   0.6516252   0.8995563   0.3629671  )
         6           Mo  tau(   6) = (   0.8717462   0.9025714   0.1688196  )
         7           Mo  tau(   7) = (   0.6476285   0.6835068   0.1614151  )
         8           Mo  tau(   8) = (   0.8596027   0.6776324   0.3573356  )
         9           Mo  tau(   9) = (   0.4286954   0.9306736   0.6068000  )
        10           Mo  tau(  10) = (   0.1189758   0.6118200   0.6168281  )
        11           Mo  tau(  11) = (   0.4125357   0.6783353   0.9208302  )
        12           Mo  tau(  12) = (   0.6256325   0.4941834   0.9491635  )
        13           Mo  tau(  13) = (   0.9008817   0.4030478   0.6072689  )
        14           Mo  tau(  14) = (   0.6294289   0.1521383   0.5814707  )
        15           S   tau(  15) = (   0.1313590   0.4179194   0.1467081  )
        16           S   tau(  16) = (   0.3907231   0.4252352   0.3933275  )
        17           S   tau(  17) = (   0.3943637   0.9279494   0.3679777  )
        18           S   tau(  18) = (   0.1300166   0.9284787   0.1468916  )
        19           S   tau(  19) = (   0.3931881   0.6480673   0.1348468  )
        20           S   tau(  20) = (   0.1215101   0.6533072   0.3785198  )
        21           S   tau(  21) = (   0.1527653   0.6777678   0.8609941  )
        22           S   tau(  22) = (   0.6384164   0.9263523   0.1066536  )
        23           S   tau(  23) = (   0.8981121   0.9151779   0.4061387  )
        24           S   tau(  24) = (   0.8901980   0.4184508   0.3656921  )
        25           S   tau(  25) = (   0.6356251   0.4215029   0.1534451  )
        26           S   tau(  26) = (   0.9145600   0.1321140   0.1134987  )
        27           S   tau(  27) = (   0.6350059   0.1443291   0.3461474  )
        28           S   tau(  28) = (   0.3696148   0.6826973   0.6499621  )
        29           S   tau(  29) = (   0.1303136   0.1410785   0.4113876  )
        30           S   tau(  30) = (   0.3773948   0.9257570   0.8581720  )
        31           S   tau(  31) = (   0.3915542   0.4321933   0.9132446  )
        32           S   tau(  32) = (   0.1374707   0.3844405   0.6525828  )
        33           S   tau(  33) = (   0.3883847   0.1528598   0.6225121  )
        34           S   tau(  34) = (   0.3873635   0.1389458   0.1159389  )
        35           S   tau(  35) = (   0.6410006   0.3922017   0.6478274  )
        36           S   tau(  36) = (   0.6104580   0.6542919   0.4034823  )
        37           S   tau(  37) = (   0.8275635   0.3839991   0.8596898  )
        38           S   tau(  38) = (   0.8752927   0.1524656   0.6311316  )
        39           S   tau(  39) = (   0.6598113   0.9210688   0.6169094  )
        40           S   tau(  40) = (   0.8805913   0.6505281   0.6156295  )
        41           S   tau(  41) = (   0.6533950   0.7252676   0.9233484  )
        42           S   tau(  42) = (   0.8946634   0.6643345   0.1115780  )

     number of k points=     8  Marzari-Vanderbilt smearing, width (Ry)=  0.0200
                       cart. coord. in units 2pi/alat
        k(    1) = (   0.0000000   0.0000000   0.0000000), wk =   0.2500000
        k(    2) = (   0.0000000   0.0000000  -0.4862535), wk =   0.2500000
        k(    3) = (   0.0000000  -0.4937620   0.0362308), wk =   0.2500000
        k(    4) = (   0.0000000  -0.4937620  -0.4500226), wk =   0.2500000
        k(    5) = (  -0.5000000  -0.0020883   0.0140081), wk =   0.2500000
        k(    6) = (  -0.5000000  -0.0020883  -0.4722454), wk =   0.2500000
        k(    7) = (  -0.5000000  -0.4958503   0.0502389), wk =   0.2500000
        k(    8) = (  -0.5000000  -0.4958503  -0.4360145), wk =   0.2500000

     Dense  grid:   732845 G-vectors     FFT dimensions: ( 120, 120, 120)

     Smooth grid:   259133 G-vectors     FFT dimensions: (  80,  80,  81)

     Estimated max dynamical RAM per process >     132.12 MB

     Estimated total dynamical RAM >       5.16 GB

     Initial potential from superposition of free atoms

     starting charge  251.97792, renormalised to  252.00000
     Starting wfcs are  238 randomized atomic wfcs

     total cpu time spent up to now is        7.2 secs

     Self-consistent Calculation

     iteration #  1     ecut=    45.00 Ry     beta= 0.70
     Davidson diagonalization with overlap
     ethr =  1.00E-02,  avg # of iterations =  2.0

     total cpu time spent up to now is       19.3 secs

     total energy              =    -983.38471754 Ry
     Harris-Foulkes estimate   =    -986.99834256 Ry
     estimated scf accuracy    <       9.55439876 Ry

     iteration #  2     ecut=    45.00 Ry     beta= 0.70
     Davidson diagonalization with overlap
     ethr =  3.79E-03,  avg # of iterations =  2.0

     total cpu time spent up to now is       30.6 secs

     total energy              =    -984.88690329 Ry
     Harris-Foulkes estimate   =    -985.57681091 Ry
     estimated scf accuracy    <       3.46061873 Ry

     iteration #  3     ecut=    45.00 Ry     beta= 0.70
     Davidson diagonalization with overlap
     ethr =  1.37E-03,  avg # of iterations =  1.2

     total cpu time spent up to now is       39.5 secs

     total energy              =    -985.20759968 Ry
     Harris-Foulkes estimate   =    -985.27701901 Ry
     estimated scf accuracy    <       0.46973352 Ry

     iteration #  4     ecut=    45.00 Ry     beta= 0.70
     Davidson diagonalization with overlap
     ethr =  1.86E-04,  avg # of iterations =  2.9

     total cpu time spent up to now is       50.0 secs

     total energy              =    -985.23612113 Ry
     Harris-Foulkes estimate   =    -985.26970647 Ry
     estimated scf accuracy    <       0.10348178 Ry

     iteration #  5     ecut=    45.00 Ry     beta= 0.70
     Davidson diagonalization with overlap
     ethr =  4.11E-05,  avg # of iterations =  8.4

     total cpu time spent up to now is       67.2 secs

     total energy              =    -985.25313130 Ry
     Harris-Foulkes estimate   =    -985.25973148 Ry
     estimated scf accuracy    <       0.04424152 Ry

     iteration #  6     ecut=    45.00 Ry     beta= 0.70
     Davidson diagonalization with overlap
     ethr =  1.76E-05,  avg # of iterations =  7.5

     total cpu time spent up to now is       80.0 secs

     total energy              =    -985.25579937 Ry
     Harris-Foulkes estimate   =    -985.25728223 Ry
     estimated scf accuracy    <       0.01081211 Ry

     iteration #  7     ecut=    45.00 Ry     beta= 0.70
     Davidson diagonalization with overlap
     c_bands:  1 eigenvalues not converged
     ethr =  4.29E-06,  avg # of iterations = 13.1

     total cpu time spent up to now is       97.5 secs

     total energy              =    -985.25662686 Ry
     Harris-Foulkes estimate   =    -985.25697728 Ry
     estimated scf accuracy    <       0.00268626 Ry

     iteration #  8     ecut=    45.00 Ry     beta= 0.70
     Davidson diagonalization with overlap
     ethr =  1.07E-06,  avg # of iterations =  4.4

     total cpu time spent up to now is      108.5 secs

     total energy              =    -985.25685501 Ry
     Harris-Foulkes estimate   =    -985.25692386 Ry
     estimated scf accuracy    <       0.00051792 Ry

     iteration #  9     ecut=    45.00 Ry     beta= 0.70
     Davidson diagonalization with overlap
     ethr =  2.06E-07,  avg # of iterations =  4.9

     total cpu time spent up to now is      123.4 secs

     total energy              =    -985.25693560 Ry
     Harris-Foulkes estimate   =    -985.25697121 Ry
     estimated scf accuracy    <       0.00023926 Ry

     iteration # 10     ecut=    45.00 Ry     beta= 0.70
     Davidson diagonalization with overlap
     ethr =  9.49E-08,  avg # of iterations =  2.6

     total cpu time spent up to now is      133.7 secs

     total energy              =    -985.25694827 Ry
     Harris-Foulkes estimate   =    -985.25695650 Ry
     estimated scf accuracy    <       0.00005284 Ry

     iteration # 11     ecut=    45.00 Ry     beta= 0.70
     Davidson diagonalization with overlap
     ethr =  2.10E-08,  avg # of iterations =  3.8

     total cpu time spent up to now is      145.3 secs

     total energy              =    -985.25695361 Ry
     Harris-Foulkes estimate   =    -985.25695801 Ry
     estimated scf accuracy    <       0.00002936 Ry

     iteration # 12     ecut=    45.00 Ry     beta= 0.70
     Davidson diagonalization with overlap
     ethr =  1.16E-08,  avg # of iterations =  1.4

     total cpu time spent up to now is      154.1 secs

     total energy              =    -985.25695485 Ry
     Harris-Foulkes estimate   =    -985.25695593 Ry
     estimated scf accuracy    <       0.00000635 Ry

     iteration # 13     ecut=    45.00 Ry     beta= 0.70
     Davidson diagonalization with overlap
     ethr =  2.52E-09,  avg # of iterations =  4.0

     total cpu time spent up to now is      166.1 secs

     total energy              =    -985.25695559 Ry
     Harris-Foulkes estimate   =    -985.25695620 Ry
     estimated scf accuracy    <       0.00000405 Ry

     iteration # 14     ecut=    45.00 Ry     beta= 0.70
     Davidson diagonalization with overlap
     ethr =  1.61E-09,  avg # of iterations =  2.6

     total cpu time spent up to now is      175.7 secs

     End of self-consistent calculation

          k = 0.0000 0.0000 0.0000 ( 32383 PWs)   bands (ev):

    -8.4826  -7.9267  -7.8431  -7.7934  -7.6264  -7.4420  -7.4151  -7.3972
    -7.3330  -7.2840  -7.2548  -7.1823  -7.1027  -7.0578  -6.9886  -6.9689
    -6.9370  -6.9128  -6.8654  -6.7900  -6.6941  -6.6012  -6.1978  -6.0770
    -5.9445  -5.6736  -5.5953  -5.4518  -0.3627  -0.2300  -0.1874  -0.1254
     0.2178   0.2984   0.3280   0.3420   0.4440   0.5961   0.6437   0.6794
     0.7009   0.8379   0.9206   1.0013   1.0415   1.0645   1.1208   1.2093
     1.2494   1.2902   1.3270   1.3344   1.4266   1.4342   1.4920   1.5278
     1.6301   1.7084   1.7406   1.7781   1.8043   1.8352   1.8813   1.9258
     2.0403   2.0497   2.0786   2.1072   2.1467   2.1842   2.2020   2.2242
     2.2726   2.2928   2.3444   2.3626   2.4290   2.4433   2.5382   2.5552
     2.6529   2.6964   2.7116   2.7719   2.8209   2.8687   3.0432   3.0748
     3.1087   3.1677   3.2455   3.3252   3.3649   3.4058   3.4714   3.5228
     3.6402   3.6836   3.8084   3.8566   3.9396   4.0309   4.0507   4.1433
     4.1816   4.2101   4.2911   4.3660   4.3806   4.5062   4.5960   4.6605
     4.7896   4.8873   4.9560   5.0762   5.0828   5.1040   5.2077   5.3058
     5.3263   5.4073   5.5091   5.5663   5.6353   5.7647   5.8693   5.8925
     6.0383   6.1584   6.2866   6.3427   6.3773   6.6496   6.7184   6.7884
     6.8465   6.9220   7.0888   7.1414   7.1517   7.2564   7.2688   7.3516
     7.4275   7.4381   7.5124   7.5976   7.6235   7.7630   7.7819

          k = 0.0000 0.0000-0.4863 ( 32398 PWs)   bands (ev):

    -8.4334  -8.0211  -7.8605  -7.7800  -7.5681  -7.4826  -7.4484  -7.3895
    -7.3052  -7.2534  -7.2259  -7.1790  -7.1252  -7.0961  -7.0246  -6.9631
    -6.9169  -6.8821  -6.8689  -6.7911  -6.7320  -6.5504  -6.2064  -6.0723
    -5.9430  -5.6812  -5.5892  -5.4464  -0.2736  -0.1433  -0.0883   0.0069
     0.2345   0.2918   0.3262   0.3572   0.4301   0.5772   0.6159   0.6517
     0.7612   0.7924   0.8646   0.8787   0.9185   0.9869   1.1356   1.1538
     1.1779   1.2160   1.2386   1.2846   1.3135   1.3923   1.4731   1.5218
     1.5961   1.6368   1.6842   1.6945   1.7566   1.8381   1.8830   1.9823
     2.0522   2.0749   2.0910   2.1300   2.1418   2.1906   2.2079   2.3075
     2.3170   2.3634   2.3833   2.4177   2.4717   2.5242   2.5793   2.6392
     2.6766   2.7101   2.7645   2.8079   2.8293   2.8879   2.9525   3.0446
     3.1381   3.1659   3.2529   3.3243   3.4102   3.4415   3.5433   3.5763
     3.5941   3.6412   3.7593   3.8017   3.8852   3.9932   4.1018   4.1336
     4.2094   4.2765   4.3282   4.4074   4.4606   4.5495   4.6090   4.6879
     4.7700   4.8664   4.9930   5.0317   5.0452   5.1969   5.2213   5.2470
     5.2956   5.4848   5.5597   5.6247   5.6391   5.7035   5.7759   5.8912
     6.0127   6.1401   6.2375   6.2923   6.4225   6.5609   6.6725   6.8176
     6.8956   6.9220   6.9490   7.0631   7.1385   7.1687   7.2696   7.3505
     7.4191   7.4371   7.4840   7.6359   7.6998   7.7074   7.7749

          k = 0.0000-0.4938 0.0362 ( 32414 PWs)   bands (ev):

    -8.2921  -8.2663  -7.7690  -7.6758  -7.5773  -7.5384  -7.4670  -7.4234
    -7.3397  -7.3011  -7.2004  -7.1481  -7.1219  -7.0842  -7.0368  -6.9508
    -6.9382  -6.8795  -6.8581  -6.7476  -6.6899  -6.6063  -6.1886  -6.0716
    -5.9394  -5.6752  -5.5925  -5.4516  -0.1307  -0.0307   0.0269   0.0342
     0.1557   0.1819   0.2216   0.3323   0.4873   0.5244   0.5692   0.5980
     0.7018   0.7693   0.7740   0.8780   0.9560   0.9788   1.0843   1.1763
     1.2117   1.2179   1.2848   1.2984   1.3397   1.4026   1.4388   1.4727
     1.5112   1.6149   1.6563   1.6852   1.7963   1.8852   1.9387   1.9765
     1.9932   2.0226   2.0669   2.1444   2.1749   2.1946   2.2533   2.2827
     2.3405   2.3775   2.3996   2.4151   2.4939   2.5457   2.5835   2.6191
     2.6404   2.6979   2.7508   2.8451   2.8835   2.9192   2.9680   3.0645
     3.1720   3.1988   3.2777   3.3766   3.3965   3.4180   3.4624   3.5613
     3.6085   3.6785   3.7671   3.8081   3.9144   3.9881   4.0233   4.1375
     4.2050   4.2679   4.3845   4.4126   4.4958   4.5460   4.6293   4.7244
     4.7787   4.8658   4.9345   4.9686   5.0570   5.1238   5.2086   5.2772
     5.3476   5.4567   5.5637   5.6143   5.6816   5.7382   5.8172   5.9352
     6.0588   6.1484   6.1973   6.3314   6.3638   6.5461   6.6101   6.7356
     6.7735   6.8894   6.9088   7.1154   7.2434   7.2773   7.3125   7.3647
     7.4011   7.4647   7.5797   7.6316   7.6491   7.7251   7.7906

          k = 0.0000-0.4938-0.4500 ( 32394 PWs)   bands (ev):

    -8.2772  -8.1974  -7.9102  -7.7172  -7.5813  -7.5403  -7.4226  -7.3732
    -7.3561  -7.2628  -7.1906  -7.1359  -7.1220  -7.0828  -7.0242  -7.0018
    -6.9490  -6.8875  -6.8681  -6.7912  -6.7064  -6.5167  -6.1912  -6.0627
    -5.9441  -5.6793  -5.5864  -5.4463  -0.0953   0.0263   0.0690   0.0918
     0.1326   0.2567   0.2923   0.3898   0.4975   0.5150   0.5975   0.6319
     0.6536   0.7026   0.8028   0.8716   0.8819   0.9984   1.0444   1.0760
     1.0950   1.1815   1.1980   1.2380   1.3129   1.3586   1.4213   1.4516
     1.5179   1.5717   1.6636   1.7404   1.7821   1.8608   1.9059   1.9569
     1.9955   2.0427   2.0630   2.0826   2.1072   2.2033   2.2481   2.2694
     2.3033   2.3593   2.4154   2.4346   2.4768   2.5225   2.6071   2.6265
     2.6546   2.7028   2.8001   2.8472   2.9124   2.9604   3.0715   3.0979
     3.1356   3.1948   3.2757   3.3268   3.3491   3.4428   3.4694   3.5109
     3.5274   3.6627   3.8096   3.9572   3.9887   4.0378   4.0927   4.2320
     4.2525   4.3389   4.4427   4.4661   4.5178   4.5419   4.6366   4.7232
     4.8025   4.8585   4.9306   4.9903   5.0271   5.1084   5.1900   5.2536
     5.3791   5.5176   5.5933   5.6147   5.6950   5.7373   5.8555   5.9082
     5.9866   6.0183   6.1667   6.2713   6.4277   6.5114   6.6358   6.6606
     6.7477   6.7888   6.9306   7.0345   7.1835   7.2412   7.2929   7.3692
     7.4362   7.4845   7.5847   7.6275   7.6622   7.7112   7.7754

          k =-0.5000-0.0021 0.0140 ( 32380 PWs)   bands (ev):

    -8.3511  -8.1681  -7.8471  -7.6546  -7.5524  -7.5339  -7.4792  -7.4075
    -7.3477  -7.2696  -7.2195  -7.1765  -7.1437  -7.0965  -7.0130  -6.9671
    -6.9375  -6.8720  -6.8045  -6.7755  -6.7151  -6.5803  -6.1908  -6.0726
    -5.9352  -5.6727  -5.5949  -5.4550  -0.1644  -0.0547   0.0072   0.0147
     0.1820   0.2072   0.2889   0.3914   0.4770   0.5490   0.6423   0.6661
     0.6897   0.7881   0.7975   0.8534   0.9453   1.0081   1.0910   1.1150
     1.1540   1.1914   1.2501   1.2988   1.3409   1.3683   1.4604   1.4990
     1.5305   1.6021   1.6454   1.7300   1.7351   1.7783   1.8372   1.9072
     1.9889   2.0208   2.0527   2.1518   2.1977   2.2124   2.2958   2.3098
     2.3366   2.3584   2.4197   2.4615   2.5016   2.5369   2.5902   2.6485
     2.6994   2.7698   2.7975   2.8385   2.8896   2.9349   2.9642   3.0519
     3.0771   3.1950   3.2047   3.2513   3.2742   3.3714   3.5061   3.5363
     3.6100   3.7210   3.8040   3.8329   3.9066   4.0097   4.0663   4.0769
     4.1772   4.2732   4.2979   4.4513   4.5087   4.6530   4.6865   4.7580
     4.7926   4.8834   4.9390   5.0090   5.1396   5.1698   5.1908   5.2326
     5.3044   5.4029   5.4789   5.5429   5.7471   5.8025   5.8728   5.9178
     6.0175   6.1591   6.2573   6.3331   6.4387   6.5364   6.6447   6.6960
     6.7816   6.8611   7.0645   7.1123   7.1913   7.2301   7.2530   7.3621
     7.4206   7.4761   7.5371   7.6092   7.6736   7.7615   7.8110

          k =-0.5000-0.0021-0.4722 ( 32396 PWs)   bands (ev):

    -8.2998  -8.1512  -7.9543  -7.6386  -7.5965  -7.5135  -7.4375  -7.4003
    -7.3679  -7.2759  -7.2254  -7.1887  -7.1397  -7.0758  -7.0393  -6.9715
    -6.9011  -6.8884  -6.8049  -6.7742  -6.7386  -6.5289  -6.1891  -6.0617
    -5.9514  -5.6799  -5.5873  -5.4460  -0.0658   0.0171   0.0434   0.1268
     0.1691   0.2443   0.3058   0.3899   0.5036   0.5132   0.5759   0.6686
     0.7318   0.7447   0.8058   0.8482   0.8979   0.9362   0.9827   1.0570
     1.0977   1.1579   1.2098   1.2562   1.2932   1.3562   1.3998   1.4211
     1.5990   1.6565   1.6759   1.6987   1.7931   1.8069   1.8912   1.9036
     1.9806   2.0019   2.0444   2.0974   2.1449   2.1767   2.2394   2.2875
     2.3376   2.3597   2.4297   2.4403   2.4886   2.5280   2.5442   2.5917
     2.6821   2.6887   2.7935   2.8078   2.8788   2.9403   2.9930   3.0066
     3.1655   3.2085   3.2616   3.3245   3.3915   3.4289   3.5249   3.5760
     3.6800   3.7675   3.8190   3.8488   3.9169   3.9799   4.0162   4.1119
     4.2485   4.3057   4.3616   4.5053   4.6191   4.6405   4.7265   4.7408
     4.8001   4.8433   4.9685   5.0228   5.0886   5.1970   5.2068   5.2711
     5.3527   5.4658   5.5072   5.5943   5.7152   5.7519   5.7966   5.8896
     6.0307   6.1116   6.1928   6.2990   6.3878   6.4808   6.5606   6.7312
     6.7611   6.8735   6.9218   7.0652   7.1948   7.2479   7.2946   7.3155
     7.3686   7.4930   7.5268   7.6494   7.6989   7.7141   7.7559

          k =-0.5000-0.4959 0.0502 ( 32380 PWs)   bands (ev):

    -8.2451  -8.1248  -7.9867  -7.8108  -7.5822  -7.4630  -7.4119  -7.4080
    -7.3654  -7.2775  -7.2000  -7.1705  -7.1518  -7.1093  -7.0009  -6.9772
    -6.9355  -6.8548  -6.8248  -6.7335  -6.7122  -6.5904  -6.1670  -6.0700
    -5.9252  -5.6754  -5.5960  -5.4521  -0.0235   0.0275   0.0643   0.2075
     0.2421   0.2829   0.3334   0.3625   0.4841   0.5344   0.6219   0.6388
     0.6472   0.7556   0.7732   0.7937   0.8451   0.8920   0.9793   1.0253
     1.0734   1.0948   1.2105   1.2317   1.3204   1.3520   1.4332   1.4679
     1.5019   1.5895   1.6258   1.6951   1.7484   1.7906   1.8398   1.8979
     1.9547   2.0015   2.0409   2.0779   2.1058   2.1685   2.2130   2.2832
     2.3214   2.3552   2.3913   2.4355   2.4919   2.5487   2.6544   2.6887
     2.7238   2.7590   2.7757   2.8373   2.9445   2.9670   3.0310   3.1087
     3.2029   3.2665   3.3101   3.3855   3.4102   3.4604   3.5793   3.5922
     3.6624   3.7126   3.7471   3.8258   3.9153   3.9524   4.0281   4.0604
     4.1943   4.2804   4.3508   4.3889   4.5103   4.6582   4.7128   4.7726
     4.8127   4.8759   4.9537   5.0510   5.0972   5.1513   5.2273   5.3007
     5.3840   5.4508   5.5279   5.6054   5.6783   5.7967   5.8957   5.9480
     6.0399   6.1638   6.1916   6.3353   6.4372   6.5359   6.5729   6.7039
     6.7930   6.8251   6.8607   7.0141   7.1232   7.1967   7.2224   7.3268
     7.4027   7.4770   7.5367   7.6341   7.6845   7.7301   7.7687

          k =-0.5000-0.4959-0.4360 ( 32388 PWs)   bands (ev):

    -8.2303  -8.0799  -7.9671  -7.8294  -7.6422  -7.5325  -7.4914  -7.3900
    -7.3444  -7.2001  -7.1937  -7.1813  -7.1254  -7.1138  -7.0308  -6.9846
    -6.9453  -6.8582  -6.7949  -6.7529  -6.7243  -6.5189  -6.1726  -6.0509
    -5.9417  -5.6783  -5.5917  -5.4464   0.0006   0.0394   0.0638   0.2078
     0.2820   0.2996   0.3588   0.3698   0.4904   0.5307   0.6038   0.6330
     0.6648   0.7558   0.7970   0.8247   0.8757   0.9508   0.9814   1.0277
     1.0980   1.1270   1.2175   1.2212   1.2281   1.3450   1.3838   1.4525
     1.5739   1.6091   1.6431   1.6619   1.7493   1.7619   1.8090   1.8513
     1.9127   1.9193   1.9971   2.0811   2.0993   2.1338   2.1946   2.2383
     2.2467   2.2885   2.3380   2.4055   2.4550   2.4808   2.5078   2.6047
     2.6710   2.7351   2.7826   2.8232   2.8807   2.9286   2.9972   3.1010
     3.2186   3.2692   3.3300   3.3907   3.4592   3.5342   3.5813   3.6708
     3.7691   3.8309   3.8685   3.9507   3.9727   4.0028   4.1369   4.1729
     4.2478   4.2817   4.4224   4.4695   4.5550   4.7126   4.7571   4.7882
     4.8133   4.9005   4.9311   4.9670   5.0500   5.1337   5.2806   5.3311
     5.3854   5.4849   5.5058   5.5742   5.7348   5.7590   5.8602   5.9080
     5.9684   6.1328   6.2247   6.2704   6.3697   6.4960   6.5583   6.5979
     6.7168   6.7789   6.9588   7.0350   7.1098   7.1656   7.2217   7.2944
     7.3859   7.5152   7.5506   7.5870   7.6167   7.7148   7.7900

     the Fermi energy is     5.8036 ev

!    total energy              =    -985.25695550 Ry
     Harris-Foulkes estimate   =    -985.25695589 Ry
     estimated scf accuracy    <       0.00000057 Ry

     The total energy is the sum of the following terms:

     one-electron contribution =    -188.34182751 Ry
     hartree contribution      =     229.90959446 Ry
     xc contribution           =    -389.16999186 Ry
     ewald contribution        =    -637.65638180 Ry
     smearing contrib. (-TS)   =       0.00165121 Ry

     convergence has been achieved in  14 iterations

     Forces acting on atoms (cartesian axes, Ry/au):

     atom    1 type  1   force =    -0.01218590   -0.00941321   -0.00694940
     atom    2 type  1   force =    -0.01078596   -0.02183502   -0.06353360
     atom    3 type  1   force =    -0.01957997   -0.06120556   -0.01379348
     atom    4 type  1   force =     0.00069131    0.00094278   -0.03471645
     atom    5 type  1   force =    -0.01996796   -0.01247748    0.00867014
     atom    6 type  1   force =     0.07016843    0.01202198    0.00573204
     atom    7 type  1   force =     0.02762130   -0.00017270   -0.01635470
     atom    8 type  1   force =    -0.01716234   -0.02460183    0.01131807
     atom    9 type  1   force =    -0.02742436   -0.03641373    0.05442215
     atom   10 type  1   force =    -0.00199409    0.04801542    0.06121432
     atom   11 type  1   force =    -0.06258863    0.00022513    0.01519562
     atom   12 type  1   force =     0.04933924   -0.05726860   -0.01971829
     atom   13 type  1   force =    -0.02196625   -0.00435805   -0.02366951
     atom   14 type  1   force =     0.02430743    0.00644029   -0.02710022
     atom   15 type  2   force =    -0.00440041    0.01845043   -0.01469821
     atom   16 type  2   force =     0.00496274   -0.00546700    0.01300099
     atom   17 type  2   force =    -0.02539100   -0.01827477   -0.01998379
     atom   18 type  2   force =    -0.01852410    0.02334172   -0.01520923
     atom   19 type  2   force =    -0.02908584    0.01834891   -0.00473205
     atom   20 type  2   force =     0.02155878    0.00582773   -0.01444163
     atom   21 type  2   force =     0.00296601   -0.00388678   -0.02777902
     atom   22 type  2   force =    -0.02630127   -0.00110457    0.00722845
     atom   23 type  2   force =    -0.00096032    0.02021785   -0.00671260
     atom   24 type  2   force =    -0.01289066   -0.01119731   -0.01243954
     atom   25 type  2   force =     0.00565310   -0.01207025    0.01577149
     atom   26 type  2   force =     0.01371964    0.00772801    0.00062639
     atom   27 type  2   force =     0.00315756    0.02658978   -0.00606039
     atom   28 type  2   force =     0.01548579    0.00757722   -0.01894444
     atom   29 type  2   force =     0.00330061    0.00508722    0.01924662
     atom   30 type  2   force =     0.00643851    0.01236127   -0.03874781
     atom   31 type  2   force =     0.00287005    0.01634030    0.00682747
     atom   32 type  2   force =     0.05019849   -0.06966240    0.02321259
     atom   33 type  2   force =    -0.02895388    0.04676754    0.04469678
     atom   34 type  2   force =    -0.00048105    0.01066583    0.03795087
     atom   35 type  2   force =    -0.00535255   -0.01344093    0.00611214
     atom   36 type  2   force =     0.02470456    0.01094961   -0.01358419
     atom   37 type  2   force =    -0.02601514    0.02394798    0.01986983
     atom   38 type  2   force =    -0.00627632    0.01376405    0.01485548
     atom   39 type  2   force =     0.05052827   -0.01636451    0.03114362
     atom   40 type  2   force =    -0.01544064    0.01892018    0.04034507
     atom   41 type  2   force =     0.02179085    0.03058610   -0.03608247
     atom   42 type  2   force =    -0.00573402   -0.00590264   -0.00218911

     Total force =     0.284098     Total SCF correction =     0.001268
 
     init_run     :      6.23s CPU      6.41s WALL (       1 calls)
     electrons    :    165.06s CPU    168.53s WALL (       1 calls)
     forces       :      3.49s CPU      3.58s WALL (       1 calls)

     Called by init_run:
     wfcinit      :      4.44s CPU      4.54s WALL (       1 calls)
     potinit      :      0.51s CPU      0.52s WALL (       1 calls)
     hinit0       :      0.66s CPU      0.68s WALL (       1 calls)

     Called by electrons:
     c_bands      :    139.13s CPU    141.22s WALL (      14 calls)
     sum_band     :     20.57s CPU     21.58s WALL (      14 calls)
     v_of_rho     :      0.98s CPU      1.03s WALL (      15 calls)
     newd         :      3.58s CPU      3.83s WALL (      15 calls)
     mix_rho      :      0.96s CPU      1.05s WALL (      14 calls)

     Called by c_bands:
     init_us_2    :      2.19s CPU      2.22s WALL (     240 calls)
     cegterg      :    130.08s CPU    132.11s WALL (     112 calls)

     Called by sum_band:
     sum_band:bec :      0.23s CPU      0.23s WALL (     112 calls)
     addusdens    :      4.99s CPU      5.60s WALL (      14 calls)

     Called by *egterg:
     h_psi        :     65.46s CPU     66.85s WALL (     606 calls)
     s_psi        :     13.28s CPU     13.35s WALL (     606 calls)
     g_psi        :      0.27s CPU      0.27s WALL (     486 calls)
     cdiaghg      :     31.96s CPU     32.43s WALL (     598 calls)

     Called by h_psi:
     h_psi:pot    :     64.88s CPU     66.25s WALL (     606 calls)
     h_psi:calbec :     14.52s CPU     14.96s WALL (     606 calls)
     vloc_psi     :     36.91s CPU     37.77s WALL (     606 calls)
     add_vuspsi   :     13.45s CPU     13.51s WALL (     606 calls)

     General routines
     calbec       :     21.61s CPU     22.28s WALL (     750 calls)
     fft          :      0.72s CPU      0.78s WALL (     204 calls)
     ffts         :      0.45s CPU      0.52s WALL (     434 calls)
     fftw         :     41.45s CPU     42.43s WALL (   98658 calls)
     interpolate  :      0.08s CPU      0.09s WALL (      15 calls)
 
     Parallel routines
     fft_scatt_xy :      4.42s CPU      4.54s WALL (   99296 calls)
     fft_scatt_yz :     17.41s CPU     17.91s WALL (   99296 calls)
 
     PWSCF        :   2m55.51s CPU   2m59.35s WALL

 
   This run was terminated on:  21:18:22  24Dec2021            

=------------------------------------------------------------------------------=
   JOB DONE.
=------------------------------------------------------------------------------=
