
     Program PWSCF v.6.4 starts on  3Dec2021 at 14:14:29 

     This program is part of the open-source Quantum ESPRESSO suite
     for quantum simulation of materials; please cite
         "P. Giannozzi et al., J. Phys.:Condens. Matter 21 395502 (2009);
         "P. Giannozzi et al., J. Phys.:Condens. Matter 29 465901 (2017);
          URL http://www.quantum-espresso.org", 
     in publications or presentations arising from this work. More details at
     http://www.quantum-espresso.org/quote

     Parallel version (MPI), running on    40 processors

     MPI processes distributed on     1 nodes
     R & G space division:  proc/nbgrp/npool/nimage =      40
     Waiting for input...
     Reading input from standard input
Warning: card    &IONS ignored
Warning: card      ION_DYNAMICS = 'BFGS' ignored
Warning: card   / ignored
Warning: card    &CELL ignored
Warning: card      CELL_DYNAMICS = 'BFGS', ignored
Warning: card    / ignored

     Current dimensions of program PWSCF are:
     Max number of different atomic species (ntypx) = 10
     Max number of k-points (npk) =  40000
     Max angular momentum in pseudopotentials (lmaxx) =  3

     Subspace diagonalization in iterative solution of the eigenvalue problem:
     one sub-group per band group will be used
     scalapack distributed-memory algorithm (size of sub-group:  4*  4 procs)

 
     Parallelization info
     --------------------
     sticks:   dense  smooth     PW     G-vecs:    dense   smooth      PW
     Min         140      69     19                15868     5605     795
     Max         141      70     20                15879     5616     801
     Sum        5603    2797    767               634997   224461   31899
 


     bravais-lattice index     =            0
     lattice parameter (alat)  =      12.1905  a.u.
     unit-cell volume          =    5505.5670 (a.u.)^3
     number of atoms/cell      =           30
     number of atomic types    =            2
     number of electrons       =       180.00
     number of Kohn-Sham states=          108
     kinetic-energy cutoff     =      45.0000  Ry
     charge density cutoff     =     360.0000  Ry
     convergence threshold     =      1.0E-06
     mixing beta               =       0.7000
     number of iterations used =            8  local-TF  mixing
     Exchange-correlation      = SLA PW GGX GGC ( 1  4  2  2 0 0)

     celldm(1)=  12.190486  celldm(2)=   0.000000  celldm(3)=   0.000000
     celldm(4)=   0.000000  celldm(5)=   0.000000  celldm(6)=   0.000000

     crystal axes: (cart. coord. in units of alat)
               a(1) = (   1.000000   0.000000   0.000000 )  
               a(2) = (   0.248035   1.316200   0.000000 )  
               a(3) = (   0.198556   0.095808   2.308964 )  

     reciprocal axes: (cart. coord. in units 2 pi/alat)
               b(1) = (  1.000000 -0.188448 -0.078174 )  
               b(2) = (  0.000000  0.759763 -0.031526 )  
               b(3) = (  0.000000  0.000000  0.433095 )  


     PseudoPot. # 1 for Mo read from file:
     ~/pseudo/Mo.pw91-n-van.UPF
     MD5 check sum: Not computed, couldn't open file
     Pseudo is Ultrasoft + core correction, Zval =  6.0
     Generated by new atomic code, or converted to UPF format
     Using radial grid of  965 points,  3 beta functions with: 
                l(1) =   1
                l(2) =   2
                l(3) =   2
     Q(r) pseudized with  8 coefficients,  rinner =    1.000   1.000   1.000
                                                       1.200   1.200

     PseudoPot. # 2 for S  read from file:
     ~/pseudo/S.pw91-van_ak.UPF
     MD5 check sum: Not computed, couldn't open file
     Pseudo is Ultrasoft, Zval =  6.0
     Generated by new atomic code, or converted to UPF format
     Using radial grid of  811 points,  6 beta functions with: 
                l(1) =   0
                l(2) =   0
                l(3) =   1
                l(4) =   1
                l(5) =   2
                l(6) =   2
     Q(r) pseudized with  8 coefficients,  rinner =    1.100   1.100   1.100
                                                       1.100   1.100

     atomic species   valence    mass     pseudopotential
        Mo             6.00    95.50000     Mo( 1.00)
        S              6.00    32.06500     S ( 1.00)

     No symmetry found



   Cartesian axes

     site n.     atom                  positions (alat units)
         1           Mo  tau(   1) = (   0.9375421   1.0527157   0.8289576  )
         2           Mo  tau(   2) = (   0.4311144   0.1724637   0.8375427  )
         3           Mo  tau(   3) = (   0.9489518   0.9335519   1.7392549  )
         4           Mo  tau(   4) = (   0.8632700   0.4849100   1.7631408  )
         5           Mo  tau(   5) = (   0.6603629   0.0801318   1.7382594  )
         6           Mo  tau(   6) = (   0.6860909   0.6156726   0.8369646  )
         7           Mo  tau(   7) = (   1.1904284   0.6145714   0.8325115  )
         8           Mo  tau(   8) = (   0.9337701   0.1721639   0.8336526  )
         9           Mo  tau(   9) = (   0.4354981   1.0534478   0.8311125  )
        10           Mo  tau(  10) = (   0.4889049   0.4215701   1.5150357  )
        11           S   tau(  11) = (   1.1872332   0.9045321   1.0712777  )
        12           S   tau(  12) = (   0.6886906   0.9074373   1.0735351  )
        13           S   tau(  13) = (   0.4422248   0.4619199   1.0982951  )
        14           S   tau(  14) = (   0.9273818   1.3470253   0.5890006  )
        15           S   tau(  15) = (   0.4286550   1.3429761   1.0780703  )
        16           S   tau(  16) = (   0.6574786   0.7578540   1.6313245  )
        17           S   tau(  17) = (   1.0993436   1.1491120   1.5248514  )
        18           S   tau(  18) = (   0.9395230   0.4693926   1.0686034  )
        19           S   tau(  19) = (   0.9278185   1.3427053   1.0746639  )
        20           S   tau(  20) = (   1.1899341   0.9025705   0.5852731  )
        21           S   tau(  21) = (   0.7339152   0.2955190   2.0325170  )
        22           S   tau(  22) = (   0.6038515   1.4026064   1.5732812  )
        23           S   tau(  23) = (   0.8981537   1.1212971   2.0186772  )
        24           S   tau(  24) = (   0.2515511   0.4672322   1.8601358  )
        25           S   tau(  25) = (   0.8301230   0.2881421   1.4688009  )
        26           S   tau(  26) = (   1.1867055   0.6752524   1.6118117  )
        27           S   tau(  27) = (   0.4399660   0.4626900   0.5967334  )
        28           S   tau(  28) = (   0.6889704   0.9018557   0.5883312  )
        29           S   tau(  29) = (   0.4315970   1.3453782   0.5892846  )
        30           S   tau(  30) = (   0.9355964   0.4688977   0.5916956  )

     number of k points=     4  Marzari-Vanderbilt smearing, width (Ry)=  0.0200
                       cart. coord. in units 2pi/alat
        k(    1) = (   0.0000000   0.0000000   0.0000000), wk =   0.3333333
        k(    2) = (   0.0000000  -0.3798815   0.0157628), wk =   0.3333333
        k(    3) = (   0.3333333  -0.0628160  -0.0260580), wk =   0.6666667
        k(    4) = (   0.3333333  -0.4426974  -0.0102952), wk =   0.6666667

     Dense  grid:   634997 G-vectors     FFT dimensions: (  75, 100, 180)

     Smooth grid:   224461 G-vectors     FFT dimensions: (  54,  72, 125)

     Estimated max dynamical RAM per process >      93.10 MB

     Estimated total dynamical RAM >       3.64 GB

     Initial potential from superposition of free atoms

     starting charge  179.98423, renormalised to  180.00000
     Starting wfcs are  170 randomized atomic wfcs

     total cpu time spent up to now is        3.6 secs

     Self-consistent Calculation

     iteration #  1     ecut=    45.00 Ry     beta= 0.70
     Davidson diagonalization with overlap
     ethr =  1.00E-02,  avg # of iterations =  2.0

     total cpu time spent up to now is        7.5 secs

     total energy              =    -702.91650877 Ry
     Harris-Foulkes estimate   =    -705.02259877 Ry
     estimated scf accuracy    <       5.50490203 Ry

     iteration #  2     ecut=    45.00 Ry     beta= 0.70
     Davidson diagonalization with overlap
     ethr =  3.06E-03,  avg # of iterations =  2.0

     total cpu time spent up to now is       11.1 secs

     total energy              =    -703.87002925 Ry
     Harris-Foulkes estimate   =    -704.05733070 Ry
     estimated scf accuracy    <       0.85970142 Ry

     iteration #  3     ecut=    45.00 Ry     beta= 0.70
     Davidson diagonalization with overlap
     ethr =  4.78E-04,  avg # of iterations =  2.2

     total cpu time spent up to now is       14.3 secs

     total energy              =    -703.93266994 Ry
     Harris-Foulkes estimate   =    -703.98329579 Ry
     estimated scf accuracy    <       0.42159183 Ry

     iteration #  4     ecut=    45.00 Ry     beta= 0.70
     Davidson diagonalization with overlap
     ethr =  2.34E-04,  avg # of iterations =  2.0

     total cpu time spent up to now is       17.5 secs

     total energy              =    -703.93733391 Ry
     Harris-Foulkes estimate   =    -703.96612807 Ry
     estimated scf accuracy    <       0.11126172 Ry

     iteration #  5     ecut=    45.00 Ry     beta= 0.70
     Davidson diagonalization with overlap
     ethr =  6.18E-05,  avg # of iterations =  7.8

     total cpu time spent up to now is       23.0 secs

     total energy              =    -703.95502804 Ry
     Harris-Foulkes estimate   =    -703.96731698 Ry
     estimated scf accuracy    <       0.09083447 Ry

     iteration #  6     ecut=    45.00 Ry     beta= 0.70
     Davidson diagonalization with overlap
     ethr =  5.05E-05,  avg # of iterations =  2.0

     total cpu time spent up to now is       26.1 secs

     total energy              =    -703.95660365 Ry
     Harris-Foulkes estimate   =    -703.96036004 Ry
     estimated scf accuracy    <       0.02592891 Ry

     iteration #  7     ecut=    45.00 Ry     beta= 0.70
     Davidson diagonalization with overlap
     ethr =  1.44E-05,  avg # of iterations =  8.0

     total cpu time spent up to now is       30.7 secs

     total energy              =    -703.95703742 Ry
     Harris-Foulkes estimate   =    -703.95854359 Ry
     estimated scf accuracy    <       0.00391749 Ry

     iteration #  8     ecut=    45.00 Ry     beta= 0.70
     Davidson diagonalization with overlap
     ethr =  2.18E-06,  avg # of iterations =  8.5

     total cpu time spent up to now is       37.5 secs

     total energy              =    -703.95792074 Ry
     Harris-Foulkes estimate   =    -703.95865106 Ry
     estimated scf accuracy    <       0.00468368 Ry

     iteration #  9     ecut=    45.00 Ry     beta= 0.70
     Davidson diagonalization with overlap
     ethr =  2.18E-06,  avg # of iterations =  1.0

     total cpu time spent up to now is       40.4 secs

     total energy              =    -703.95754633 Ry
     Harris-Foulkes estimate   =    -703.95804569 Ry
     estimated scf accuracy    <       0.00219863 Ry

     iteration # 10     ecut=    45.00 Ry     beta= 0.70
     Davidson diagonalization with overlap
     ethr =  1.22E-06,  avg # of iterations =  2.8

     total cpu time spent up to now is       43.8 secs

     total energy              =    -703.95766912 Ry
     Harris-Foulkes estimate   =    -703.95772507 Ry
     estimated scf accuracy    <       0.00023660 Ry

     iteration # 11     ecut=    45.00 Ry     beta= 0.70
     Davidson diagonalization with overlap
     ethr =  1.31E-07,  avg # of iterations =  4.0

     total cpu time spent up to now is       48.3 secs

     total energy              =    -703.95773408 Ry
     Harris-Foulkes estimate   =    -703.95775160 Ry
     estimated scf accuracy    <       0.00017329 Ry

     iteration # 12     ecut=    45.00 Ry     beta= 0.70
     Davidson diagonalization with overlap
     ethr =  9.63E-08,  avg # of iterations =  1.0

     total cpu time spent up to now is       51.3 secs

     total energy              =    -703.95773102 Ry
     Harris-Foulkes estimate   =    -703.95773999 Ry
     estimated scf accuracy    <       0.00005982 Ry

     iteration # 13     ecut=    45.00 Ry     beta= 0.70
     Davidson diagonalization with overlap
     ethr =  3.32E-08,  avg # of iterations =  4.0

     total cpu time spent up to now is       55.1 secs

     total energy              =    -703.95773762 Ry
     Harris-Foulkes estimate   =    -703.95773865 Ry
     estimated scf accuracy    <       0.00001386 Ry

     iteration # 14     ecut=    45.00 Ry     beta= 0.70
     Davidson diagonalization with overlap
     ethr =  7.70E-09,  avg # of iterations =  1.5

     total cpu time spent up to now is       58.1 secs

     total energy              =    -703.95773726 Ry
     Harris-Foulkes estimate   =    -703.95773839 Ry
     estimated scf accuracy    <       0.00000697 Ry

     iteration # 15     ecut=    45.00 Ry     beta= 0.70
     Davidson diagonalization with overlap
     ethr =  3.87E-09,  avg # of iterations =  3.0

     total cpu time spent up to now is       61.4 secs

     End of self-consistent calculation

          k = 0.0000 0.0000 0.0000 ( 28049 PWs)   bands (ev):

   -11.3746 -10.7680  -9.7236  -9.6215  -9.5877  -9.3339  -9.1637  -9.1068
    -9.0813  -9.0580  -9.0208  -8.9040  -8.7940  -8.7617  -8.7061  -8.5461
    -8.4388  -8.3361  -8.0685  -7.3710  -2.4243  -2.3230  -2.0878  -1.9742
    -1.9554  -1.9250  -1.8920  -1.5798  -1.5240  -1.4963  -1.4696  -1.2582
    -1.1070  -0.8965  -0.8250  -0.8031  -0.7766  -0.7212  -0.7050  -0.6158
    -0.5906  -0.4450  -0.2849  -0.0803  -0.0076   0.0324   0.1185   0.1535
     0.2493   0.3722   0.4400   0.4737   0.4941   0.5302   0.5757   0.6304
     0.7139   0.7901   0.8424   0.9207   0.9861   1.0664   1.1461   1.2955
     1.3936   1.5034   1.5920   1.5984   1.6297   1.7119   1.7288   1.7880
     1.7987   1.8331   1.9577   2.0811   2.1878   2.2348   2.3291   2.5149
     2.5955   2.6136   2.6872   2.7587   3.0209   3.2854   3.4764   3.7437
     4.2664   4.4119   4.6039   4.7059   4.9039   5.0755   5.1274   5.1742
     5.1886   5.2089   5.2384   5.3235   5.3599   5.4065   5.5935   5.6410
     5.7285   5.7381   5.7603   5.8057

          k = 0.0000-0.3799 0.0158 ( 28000 PWs)   bands (ev):

   -11.3685 -10.4619 -10.3933  -9.5893  -9.3951  -9.2671  -9.1682  -9.1199
    -9.1001  -9.0461  -9.0053  -8.8495  -8.7782  -8.7752  -8.7118  -8.5665
    -8.3742  -8.3222  -8.0481  -7.3867  -2.4170  -2.3690  -2.1210  -2.0445
    -1.9639  -1.9256  -1.9031  -1.6377  -1.5825  -1.5161  -1.4622  -1.4419
    -1.1768  -0.9979  -0.8583  -0.7909  -0.7223  -0.5971  -0.4914  -0.3577
    -0.2641  -0.2045  -0.1770  -0.1549  -0.0149   0.0247   0.0587   0.0763
     0.1672   0.2601   0.2698   0.3864   0.4367   0.5303   0.5751   0.7209
     0.7696   0.9425   0.9781   0.9955   1.0326   1.0692   1.0970   1.1682
     1.1862   1.2070   1.2464   1.3377   1.5205   1.5432   1.5535   1.7115
     1.9563   2.0959   2.1516   2.2178   2.2234   2.4990   2.5884   2.6223
     2.6776   2.7302   2.8676   2.9253   3.0032   3.2024   3.3834   3.7231
     4.1326   4.4136   4.5575   4.5854   4.8821   5.0115   5.0933   5.1080
     5.1889   5.2257   5.2912   5.3616   5.4040   5.5371   5.5653   5.6056
     5.6331   5.6526   5.6891   5.7048

          k = 0.3333-0.0628-0.0261 ( 28065 PWs)   bands (ev):

   -11.3398 -10.4957  -9.8235  -9.6201  -9.5289  -9.3605  -9.3068  -9.2625
    -9.0911  -9.0328  -8.9930  -8.9327  -8.8662  -8.8344  -8.6921  -8.5627
    -8.4636  -8.3081  -8.0600  -7.3893  -2.1322  -2.0082  -1.9417  -1.8638
    -1.7966  -1.7245  -1.7100  -1.7035  -1.5739  -1.3058  -1.2160  -1.1639
    -1.0405  -0.8715  -0.8209  -0.7480  -0.6738  -0.6156  -0.5520  -0.4747
    -0.4568  -0.3720  -0.2363  -0.1275  -0.0916  -0.0248   0.0070   0.0646
     0.1097   0.1514   0.2244   0.2692   0.3256   0.4321   0.4834   0.6435
     0.6801   0.7739   0.8252   0.9011   0.9594   1.0842   1.1137   1.1373
     1.1668   1.2528   1.3080   1.3586   1.3915   1.5356   1.6293   1.7384
     1.8341   1.9104   1.9920   2.0840   2.2712   2.3242   2.3918   2.4173
     2.5012   2.5700   2.7686   2.8768   2.9298   3.1076   3.4467   3.7814
     4.2706   4.3739   4.5644   4.6705   4.7515   4.9140   4.9767   5.0850
     5.1831   5.2074   5.2449   5.3265   5.4176   5.4315   5.4928   5.5108
     5.5409   5.5848   5.6625   5.7183

          k = 0.3333-0.4427-0.0103 ( 28078 PWs)   bands (ev):

   -11.3385 -10.2868 -10.0851  -9.7392  -9.5239  -9.4192  -9.2701  -9.1962
    -9.0485  -9.0402  -9.0163  -8.9233  -8.8975  -8.7513  -8.6436  -8.5549
    -8.4526  -8.3078  -8.0690  -7.3756  -2.0732  -2.0170  -1.9464  -1.9294
    -1.8401  -1.7783  -1.7167  -1.6576  -1.5779  -1.4538  -1.2221  -1.1636
    -0.9516  -0.8586  -0.7626  -0.6856  -0.6483  -0.6063  -0.5593  -0.5403
    -0.4074  -0.3541  -0.2673  -0.1953  -0.1228  -0.0727   0.0740   0.1026
     0.1812   0.1960   0.2343   0.3184   0.3672   0.4208   0.4605   0.5001
     0.5804   0.7909   0.8339   0.8951   0.9492   1.0386   1.0719   1.1524
     1.1914   1.2234   1.3588   1.4047   1.5004   1.5508   1.6376   1.6687
     1.7261   1.8325   1.9937   2.1502   2.2526   2.3263   2.3870   2.5493
     2.5800   2.6950   2.7725   2.8318   3.0529   3.1412   3.4272   3.7257
     4.0076   4.3604   4.4735   4.5808   4.7417   4.8014   4.9876   5.0528
     5.0769   5.1452   5.1915   5.2662   5.3573   5.4371   5.4662   5.5180
     5.5350   5.5948   5.6993   5.7996

     the Fermi energy is     4.4651 ev

!    total energy              =    -703.95773756 Ry
     Harris-Foulkes estimate   =    -703.95773797 Ry
     estimated scf accuracy    <       0.00000050 Ry

     The total energy is the sum of the following terms:

     one-electron contribution =    -845.77965574 Ry
     hartree contribution      =     506.26833425 Ry
     xc contribution           =    -278.05677539 Ry
     ewald contribution        =     -86.37741206 Ry
     smearing contrib. (-TS)   =      -0.01222862 Ry

     convergence has been achieved in  15 iterations

     Forces acting on atoms (cartesian axes, Ry/au):

     atom    1 type  1   force =    -0.00449203   -0.00554267    0.00129421
     atom    2 type  1   force =     0.00627518    0.00786462   -0.00422536
     atom    3 type  1   force =    -0.00535904   -0.05457291    0.01544719
     atom    4 type  1   force =     0.01448185    0.01831824   -0.00974819
     atom    5 type  1   force =     0.04066777   -0.01587565   -0.01854153
     atom    6 type  1   force =     0.00126759   -0.01234003   -0.00317888
     atom    7 type  1   force =     0.00503916   -0.00691029    0.00585430
     atom    8 type  1   force =    -0.00661088    0.01335981   -0.00885602
     atom    9 type  1   force =     0.00804471   -0.00638582   -0.00290614
     atom   10 type  1   force =    -0.01104815    0.01883010    0.00484353
     atom   11 type  2   force =    -0.00115944    0.00383519    0.00600682
     atom   12 type  2   force =    -0.00338712    0.00703854    0.00540211
     atom   13 type  2   force =    -0.00195234    0.00193177   -0.00684098
     atom   14 type  2   force =     0.00697046   -0.00326206    0.00241708
     atom   15 type  2   force =     0.00015209   -0.00501350    0.00007113
     atom   16 type  2   force =    -0.02055467    0.00036340    0.00891052
     atom   17 type  2   force =     0.02377232    0.05039119   -0.03980348
     atom   18 type  2   force =     0.00230181    0.00071283    0.00648593
     atom   19 type  2   force =     0.01046559   -0.00760052   -0.00159435
     atom   20 type  2   force =    -0.00427953    0.00461149    0.00420230
     atom   21 type  2   force =     0.00902982    0.00759264    0.01557449
     atom   22 type  2   force =    -0.03476536   -0.00849969   -0.01343144
     atom   23 type  2   force =    -0.01744486    0.02398895    0.02912783
     atom   24 type  2   force =    -0.00954169    0.02080113   -0.01351167
     atom   25 type  2   force =     0.00573858   -0.02392737   -0.00306718
     atom   26 type  2   force =    -0.00437074   -0.03607275    0.02209149
     atom   27 type  2   force =    -0.00423915    0.00422245   -0.00394432
     atom   28 type  2   force =    -0.00712069    0.00637143    0.00137864
     atom   29 type  2   force =     0.00004899   -0.00143832    0.00033518
     atom   30 type  2   force =     0.00206976   -0.00279220    0.00020680

     Total force =     0.141794     Total SCF correction =     0.001255
 
     init_run     :      2.79s CPU      2.87s WALL (       1 calls)
     electrons    :     56.24s CPU     57.80s WALL (       1 calls)
     forces       :      1.60s CPU      1.63s WALL (       1 calls)

     Called by init_run:
     wfcinit      :      1.26s CPU      1.30s WALL (       1 calls)
     potinit      :      0.42s CPU      0.42s WALL (       1 calls)
     hinit0       :      0.56s CPU      0.57s WALL (       1 calls)

     Called by electrons:
     c_bands      :     41.58s CPU     42.16s WALL (      15 calls)
     sum_band     :      9.43s CPU     10.07s WALL (      15 calls)
     v_of_rho     :      0.90s CPU      0.94s WALL (      16 calls)
     newd         :      3.18s CPU      3.41s WALL (      16 calls)
     mix_rho      :      1.25s CPU      1.33s WALL (      15 calls)

     Called by c_bands:
     init_us_2    :      0.73s CPU      0.75s WALL (     128 calls)
     cegterg      :     38.62s CPU     39.17s WALL (      60 calls)

     Called by sum_band:
     sum_band:bec :      0.07s CPU      0.07s WALL (      60 calls)
     addusdens    :      4.40s CPU      4.93s WALL (      15 calls)

     Called by *egterg:
     h_psi        :     20.51s CPU     20.89s WALL (     271 calls)
     s_psi        :      3.48s CPU      3.48s WALL (     271 calls)
     g_psi        :      0.08s CPU      0.08s WALL (     207 calls)
     cdiaghg      :      8.94s CPU      9.09s WALL (     267 calls)

     Called by h_psi:
     h_psi:pot    :     20.32s CPU     20.69s WALL (     271 calls)
     h_psi:calbec :      4.10s CPU      4.17s WALL (     271 calls)
     vloc_psi     :     12.67s CPU     12.96s WALL (     271 calls)
     add_vuspsi   :      3.55s CPU      3.56s WALL (     271 calls)

     General routines
     calbec       :      6.03s CPU      6.15s WALL (     347 calls)
     fft          :      0.74s CPU      0.79s WALL (     217 calls)
     ffts         :      0.60s CPU      0.67s WALL (     633 calls)
     fftw         :     14.26s CPU     14.58s WALL (   38472 calls)
     interpolate  :      0.07s CPU      0.08s WALL (      16 calls)
 
     Parallel routines
     fft_scatt_xy :      1.67s CPU      1.71s WALL (   39322 calls)
     fft_scatt_yz :      6.72s CPU      6.95s WALL (   39322 calls)
 
     PWSCF        :   1m 1.41s CPU   1m 3.17s WALL

 
   This run was terminated on:  14:15:33   3Dec2021            

=------------------------------------------------------------------------------=
   JOB DONE.
=------------------------------------------------------------------------------=
