
     Program PWSCF v.6.4 starts on 24Dec2021 at  0: 5:13 

     This program is part of the open-source Quantum ESPRESSO suite
     for quantum simulation of materials; please cite
         "P. Giannozzi et al., J. Phys.:Condens. Matter 21 395502 (2009);
         "P. Giannozzi et al., J. Phys.:Condens. Matter 29 465901 (2017);
          URL http://www.quantum-espresso.org", 
     in publications or presentations arising from this work. More details at
     http://www.quantum-espresso.org/quote

     Parallel version (MPI), running on    40 processors

     MPI processes distributed on     1 nodes
     R & G space division:  proc/nbgrp/npool/nimage =      40
     Waiting for input...
     Reading input from standard input
Warning: card    &IONS ignored
Warning: card      ION_DYNAMICS = 'BFGS' ignored
Warning: card   / ignored
Warning: card    &CELL ignored
Warning: card      CELL_DYNAMICS = 'BFGS', ignored
Warning: card    / ignored

     Current dimensions of program PWSCF are:
     Max number of different atomic species (ntypx) = 10
     Max number of k-points (npk) =  40000
     Max angular momentum in pseudopotentials (lmaxx) =  3

     Subspace diagonalization in iterative solution of the eigenvalue problem:
     one sub-group per band group will be used
     scalapack distributed-memory algorithm (size of sub-group:  4*  4 procs)

 
     Parallelization info
     --------------------
     sticks:   dense  smooth     PW     G-vecs:    dense   smooth      PW
     Min          93      46     12                10639     3755     536
     Max          94      47     13                10652     3772     550
     Sum        3749    1875    513               425873   150609   21795
 


     bravais-lattice index     =            0
     lattice parameter (alat)  =      11.9889  a.u.
     unit-cell volume          =    3691.6423 (a.u.)^3
     number of atoms/cell      =           18
     number of atomic types    =            2
     number of electrons       =       108.00
     number of Kohn-Sham states=           65
     kinetic-energy cutoff     =      45.0000  Ry
     charge density cutoff     =     360.0000  Ry
     convergence threshold     =      1.0E-06
     mixing beta               =       0.7000
     number of iterations used =            8  local-TF  mixing
     Exchange-correlation      = SLA PW GGX GGC ( 1  4  2  2 0 0)

     celldm(1)=  11.988889  celldm(2)=   0.000000  celldm(3)=   0.000000
     celldm(4)=   0.000000  celldm(5)=   0.000000  celldm(6)=   0.000000

     crystal axes: (cart. coord. in units of alat)
               a(1) = (   1.000000   0.000000   0.000000 )  
               a(2) = (   0.500626   0.910896   0.000000 )  
               a(3) = (  -0.019197   0.362706   2.351873 )  

     reciprocal axes: (cart. coord. in units 2 pi/alat)
               b(1) = (  1.000000 -0.549598  0.092921 )  
               b(2) = (  0.000000  1.097820 -0.169306 )  
               b(3) = (  0.000000  0.000000  0.425193 )  


     PseudoPot. # 1 for Mo read from file:
     ~/pseudo/Mo.pw91-n-van.UPF
     MD5 check sum: Not computed, couldn't open file
     Pseudo is Ultrasoft + core correction, Zval =  6.0
     Generated by new atomic code, or converted to UPF format
     Using radial grid of  965 points,  3 beta functions with: 
                l(1) =   1
                l(2) =   2
                l(3) =   2
     Q(r) pseudized with  8 coefficients,  rinner =    1.000   1.000   1.000
                                                       1.200   1.200

     PseudoPot. # 2 for S  read from file:
     ~/pseudo/S.pw91-van_ak.UPF
     MD5 check sum: Not computed, couldn't open file
     Pseudo is Ultrasoft, Zval =  6.0
     Generated by new atomic code, or converted to UPF format
     Using radial grid of  811 points,  6 beta functions with: 
                l(1) =   0
                l(2) =   0
                l(3) =   1
                l(4) =   1
                l(5) =   2
                l(6) =   2
     Q(r) pseudized with  8 coefficients,  rinner =    1.100   1.100   1.100
                                                       1.100   1.100

     atomic species   valence    mass     pseudopotential
        Mo             6.00    95.50000     Mo( 1.00)
        S              6.00    32.06500     S ( 1.00)

     No symmetry found



   Cartesian axes

     site n.     atom                  positions (alat units)
         1           Mo  tau(   1) = (   0.5970832   0.5286344   1.8530636  )
         2           Mo  tau(   2) = (   1.3332790   0.9960006   1.8436582  )
         3           Mo  tau(   3) = (   1.0834918   0.5294362   1.8560904  )
         4           Mo  tau(   4) = (   0.8464368   1.0012307   1.8439908  )
         5           Mo  tau(   5) = (   0.3464482   0.6888746   1.2289524  )
         6           Mo  tau(   6) = (   0.8462905   0.6876718   1.2338038  )
         7           S   tau(   7) = (   0.3344642   0.6903496   2.0794247  )
         8           S   tau(   8) = (   1.0869007   1.1433042   2.0821334  )
         9           S   tau(   9) = (   0.8411962   0.6999769   2.0842874  )
        10           S   tau(  10) = (   0.5960117   1.1427186   2.0966864  )
        11           S   tau(  11) = (   0.5930822   0.4370622   1.1070422  )
        12           S   tau(  12) = (   1.0956520   0.4598493   1.0625119  )
        13           S   tau(  13) = (   0.3350808   0.6975281   1.6077751  )
        14           S   tau(  14) = (   1.0895371   1.1502857   1.5873850  )
        15           S   tau(  15) = (   0.8359822   0.6935371   1.6055109  )
        16           S   tau(  16) = (   0.5967699   1.1498631   1.5935761  )
        17           S   tau(  17) = (   0.5869519   0.9209296   1.0883772  )
        18           S   tau(  18) = (   1.0948618   0.8999767   1.0547966  )

     number of k points=     5  Marzari-Vanderbilt smearing, width (Ry)=  0.0200
                       cart. coord. in units 2pi/alat
        k(    1) = (   0.0000000   0.0000000   0.0000000), wk =   0.2222222
        k(    2) = (   0.0000000   0.3659400  -0.0564353), wk =   0.4444444
        k(    3) = (   0.3333333  -0.1831992   0.0309737), wk =   0.4444444
        k(    4) = (   0.3333333   0.1827407  -0.0254615), wk =   0.4444444
        k(    5) = (   0.3333333  -0.5491392   0.0874090), wk =   0.4444444

     Dense  grid:   425873 G-vectors     FFT dimensions: (  75,  75, 180)

     Smooth grid:   150609 G-vectors     FFT dimensions: (  54,  54, 125)

     Estimated max dynamical RAM per process >      56.18 MB

     Estimated total dynamical RAM >       2.19 GB

     Initial potential from superposition of free atoms

     starting charge  107.99054, renormalised to  108.00000

     negative rho (up, down):  2.221E-05 0.000E+00
     Starting wfcs are  102 randomized atomic wfcs

     total cpu time spent up to now is        2.5 secs

     Self-consistent Calculation

     iteration #  1     ecut=    45.00 Ry     beta= 0.70
     Davidson diagonalization with overlap
     ethr =  1.00E-02,  avg # of iterations =  2.4

     negative rho (up, down):  4.730E-07 0.000E+00

     total cpu time spent up to now is        4.8 secs

     total energy              =    -421.66295506 Ry
     Harris-Foulkes estimate   =    -423.05055894 Ry
     estimated scf accuracy    <       4.05260495 Ry

     iteration #  2     ecut=    45.00 Ry     beta= 0.70
     Davidson diagonalization with overlap
     ethr =  3.75E-03,  avg # of iterations =  2.0

     total cpu time spent up to now is        6.9 secs

     total energy              =    -422.31371772 Ry
     Harris-Foulkes estimate   =    -422.45571342 Ry
     estimated scf accuracy    <       0.62023921 Ry

     iteration #  3     ecut=    45.00 Ry     beta= 0.70
     Davidson diagonalization with overlap
     ethr =  5.74E-04,  avg # of iterations =  2.2

     total cpu time spent up to now is        8.7 secs

     total energy              =    -422.36885325 Ry
     Harris-Foulkes estimate   =    -422.38494273 Ry
     estimated scf accuracy    <       0.07457093 Ry

     iteration #  4     ecut=    45.00 Ry     beta= 0.70
     Davidson diagonalization with overlap
     ethr =  6.90E-05,  avg # of iterations =  7.8

     total cpu time spent up to now is       11.8 secs

     total energy              =    -422.38098566 Ry
     Harris-Foulkes estimate   =    -422.38840692 Ry
     estimated scf accuracy    <       0.03012128 Ry

     iteration #  5     ecut=    45.00 Ry     beta= 0.70
     Davidson diagonalization with overlap
     ethr =  2.79E-05,  avg # of iterations =  5.6

     total cpu time spent up to now is       14.0 secs

     total energy              =    -422.38309517 Ry
     Harris-Foulkes estimate   =    -422.38390990 Ry
     estimated scf accuracy    <       0.00356138 Ry

     iteration #  6     ecut=    45.00 Ry     beta= 0.70
     Davidson diagonalization with overlap
     ethr =  3.30E-06,  avg # of iterations =  7.8

     total cpu time spent up to now is       17.0 secs

     total energy              =    -422.38341187 Ry
     Harris-Foulkes estimate   =    -422.38385903 Ry
     estimated scf accuracy    <       0.00223681 Ry

     iteration #  7     ecut=    45.00 Ry     beta= 0.70
     Davidson diagonalization with overlap
     ethr =  2.07E-06,  avg # of iterations =  1.2

     total cpu time spent up to now is       18.7 secs

     total energy              =    -422.38351494 Ry
     Harris-Foulkes estimate   =    -422.38355645 Ry
     estimated scf accuracy    <       0.00111699 Ry

     iteration #  8     ecut=    45.00 Ry     beta= 0.70
     Davidson diagonalization with overlap
     ethr =  1.03E-06,  avg # of iterations =  2.6

     total cpu time spent up to now is       20.6 secs

     total energy              =    -422.38369487 Ry
     Harris-Foulkes estimate   =    -422.38363584 Ry
     estimated scf accuracy    <       0.00057600 Ry

     iteration #  9     ecut=    45.00 Ry     beta= 0.70
     Davidson diagonalization with overlap
     ethr =  5.33E-07,  avg # of iterations =  1.2

     negative rho (up, down):  9.940E-07 0.000E+00

     total cpu time spent up to now is       22.2 secs

     total energy              =    -422.38379796 Ry
     Harris-Foulkes estimate   =    -422.38373105 Ry
     estimated scf accuracy    <       0.00008617 Ry

     iteration # 10     ecut=    45.00 Ry     beta= 0.70
     Davidson diagonalization with overlap
     ethr =  7.98E-08,  avg # of iterations =  4.6

     negative rho (up, down):  1.869E-05 0.000E+00

     total cpu time spent up to now is       24.8 secs

     total energy              =    -422.38382424 Ry
     Harris-Foulkes estimate   =    -422.38381928 Ry
     estimated scf accuracy    <       0.00007443 Ry

     iteration # 11     ecut=    45.00 Ry     beta= 0.70
     Davidson diagonalization with overlap
     ethr =  6.89E-08,  avg # of iterations =  3.0

     negative rho (up, down):  5.406E-05 0.000E+00

     total cpu time spent up to now is       26.9 secs

     total energy              =    -422.38383716 Ry
     Harris-Foulkes estimate   =    -422.38383472 Ry
     estimated scf accuracy    <       0.00001491 Ry

     iteration # 12     ecut=    45.00 Ry     beta= 0.70
     Davidson diagonalization with overlap
     ethr =  1.38E-08,  avg # of iterations =  2.0

     negative rho (up, down):  7.262E-05 0.000E+00

     total cpu time spent up to now is       28.9 secs

     total energy              =    -422.38383840 Ry
     Harris-Foulkes estimate   =    -422.38383824 Ry
     estimated scf accuracy    <       0.00000521 Ry

     iteration # 13     ecut=    45.00 Ry     beta= 0.70
     Davidson diagonalization with overlap
     ethr =  4.82E-09,  avg # of iterations =  3.0

     negative rho (up, down):  8.999E-05 0.000E+00

     total cpu time spent up to now is       31.1 secs

     total energy              =    -422.38383959 Ry
     Harris-Foulkes estimate   =    -422.38383911 Ry
     estimated scf accuracy    <       0.00000184 Ry

     iteration # 14     ecut=    45.00 Ry     beta= 0.70
     Davidson diagonalization with overlap
     ethr =  1.70E-09,  avg # of iterations =  3.0

     negative rho (up, down):  9.180E-05 0.000E+00

     total cpu time spent up to now is       33.0 secs

     End of self-consistent calculation

          k = 0.0000 0.0000 0.0000 ( 18857 PWs)   bands (ev):

   -12.1544 -10.9564 -10.7965 -10.5285 -10.3902 -10.2412 -10.0789  -9.9755
    -9.8510  -9.1083  -8.9782  -8.7517  -3.8601  -3.7663  -3.6855  -3.5856
    -2.9857  -2.8133  -2.7588  -2.5755  -2.4231  -2.1671  -1.8195  -1.5804
    -1.3750  -1.3297  -1.3042  -1.0426  -0.9231  -0.8550  -0.8286  -0.5438
    -0.4915  -0.2798  -0.0296   0.1969   0.2416   0.4319   0.4776   0.5531
     0.6445   0.8534   1.0066   1.2291   1.2954   1.3858   1.4776   1.5112
     1.5314   1.8411   2.1562   2.3917   2.5167   3.3021   3.5161   3.6479
     3.8786   3.9918   4.0916   4.1509   4.3862   4.4995   4.6569   4.7908
     4.8343

          k = 0.0000 0.3659-0.0564 ( 18793 PWs)   bands (ev):

   -11.8758 -11.0456 -10.8033 -10.6360 -10.3533 -10.1905 -10.1344  -9.9684
    -9.8497  -9.4221  -9.2645  -8.5344  -3.5540  -3.4663  -3.3158  -3.1548
    -2.8477  -2.8428  -2.5996  -2.4065  -2.0717  -1.7978  -1.7464  -1.6868
    -1.6046  -1.4432  -1.3484  -1.2257  -1.0638  -0.9681  -0.7145  -0.5900
    -0.5145  -0.3182  -0.1485  -0.0183   0.0802   0.1071   0.1861   0.3167
     0.4784   0.5265   0.7163   0.8735   1.0311   1.1180   1.1539   1.2867
     1.3545   1.7052   1.8571   2.9064   3.1428   3.2640   3.6104   3.8217
     3.8698   3.9997   4.0235   4.2124   4.2543   4.4183   4.5529   4.7245
     4.7741

          k = 0.3333-0.1832 0.0310 ( 18819 PWs)   bands (ev):

   -11.8220 -11.1110 -10.8059 -10.4498 -10.3517 -10.1993 -10.1629 -10.1223
    -9.9040  -9.4867  -8.9634  -8.7694  -3.5253  -3.3808  -3.2133  -3.1613
    -2.7829  -2.6968  -2.5687  -2.2529  -2.0879  -1.9897  -1.6998  -1.5180
    -1.4625  -1.2805  -1.1766  -1.0381  -0.9870  -0.9048  -0.7106  -0.5973
    -0.5479  -0.4339  -0.3198  -0.2185  -0.1554  -0.0465   0.1273   0.1821
     0.3475   0.5197   0.6620   0.7397   0.8136   1.2498   1.3773   1.5784
     1.6988   1.8943   2.0017   2.1312   2.5927   2.7243   3.5837   3.7563
     3.8603   3.9150   4.0298   4.1799   4.2867   4.3904   4.5734   4.6492
     4.7802

          k = 0.3333 0.1827-0.0255 ( 18813 PWs)   bands (ev):

   -11.8202 -11.1116 -10.8045 -10.4629 -10.3676 -10.1859 -10.1535 -10.0855
    -9.9319  -9.4908  -8.9710  -8.7624  -3.5045  -3.3837  -3.2238  -3.1612
    -2.7837  -2.7163  -2.5888  -2.2623  -2.1029  -1.9659  -1.7104  -1.5286
    -1.4511  -1.2752  -1.1711  -1.0497  -0.9444  -0.9013  -0.7248  -0.6217
    -0.5356  -0.4273  -0.3038  -0.2027  -0.1674  -0.0284   0.1092   0.2009
     0.3761   0.5409   0.6480   0.7205   0.8168   1.2166   1.4324   1.5531
     1.6389   1.8717   2.0092   2.1588   2.5987   2.7158   3.6068   3.7537
     3.8535   3.9130   3.9912   4.1794   4.2922   4.4059   4.5850   4.6559
     4.7729

          k = 0.3333-0.5491 0.0874 ( 18831 PWs)   bands (ev):

   -11.5072 -11.2530 -10.9717 -10.4863 -10.4072 -10.2616 -10.0688  -9.9266
    -9.8462  -9.5853  -9.4248  -8.5283  -3.3235  -3.2896  -3.1386  -2.8607
    -2.5814  -2.4233  -2.2020  -2.0684  -2.0334  -1.9126  -1.7937  -1.6807
    -1.6258  -1.5450  -1.1977  -1.1397  -1.0454  -0.9949  -0.9233  -0.7908
    -0.7060  -0.5934  -0.3578  -0.3077  -0.2463  -0.0414   0.0387   0.2691
     0.3604   0.4763   0.6562   0.6784   0.9125   1.1760   1.2403   1.3529
     1.4565   1.5399   1.9557   2.6262   2.8252   3.0702   3.3814   3.5050
     3.7038   3.8756   3.9702   4.0926   4.1862   4.3155   4.4811   4.5813
     4.7356

     the Fermi energy is     3.3350 ev

!    total energy              =    -422.38383960 Ry
     Harris-Foulkes estimate   =    -422.38383976 Ry
     estimated scf accuracy    <       0.00000026 Ry

     The total energy is the sum of the following terms:

     one-electron contribution =    -932.99226484 Ry
     hartree contribution      =     512.28195152 Ry
     xc contribution           =    -167.01053153 Ry
     ewald contribution        =     165.33825372 Ry
     smearing contrib. (-TS)   =      -0.00124847 Ry

     convergence has been achieved in  14 iterations

     negative rho (up, down):  9.180E-05 0.000E+00

     Forces acting on atoms (cartesian axes, Ry/au):

     atom    1 type  1   force =    -0.05002019    0.02371922   -0.05434550
     atom    2 type  1   force =     0.05013923    0.02162034   -0.02282339
     atom    3 type  1   force =     0.02062305    0.00334271   -0.06282118
     atom    4 type  1   force =    -0.03951199   -0.01596314   -0.04134457
     atom    5 type  1   force =    -0.00549085   -0.01988641   -0.01948962
     atom    6 type  1   force =    -0.01335860   -0.00731122   -0.06332960
     atom    7 type  2   force =     0.01972149    0.00571020    0.05003608
     atom    8 type  2   force =     0.02085102    0.00809876    0.07301573
     atom    9 type  2   force =    -0.00616896   -0.00296052    0.04861222
     atom   10 type  2   force =    -0.02161572   -0.00616977    0.00143145
     atom   11 type  2   force =     0.00819763    0.01293988    0.01665703
     atom   12 type  2   force =    -0.00503480    0.00525402    0.02368772
     atom   13 type  2   force =     0.00432394   -0.04001425   -0.00954703
     atom   14 type  2   force =     0.00907640    0.00225705    0.02740426
     atom   15 type  2   force =     0.01706865   -0.01520207   -0.00220220
     atom   16 type  2   force =    -0.02196889    0.00112781    0.02921488
     atom   17 type  2   force =     0.02358169    0.01075854   -0.00023666
     atom   18 type  2   force =    -0.01041310    0.01267885    0.00608040

     Total force =     0.201666     Total SCF correction =     0.001055
 
     init_run     :      1.66s CPU      1.75s WALL (       1 calls)
     electrons    :     29.95s CPU     30.50s WALL (       1 calls)
     forces       :      0.91s CPU      0.93s WALL (       1 calls)

     Called by init_run:
     wfcinit      :      0.64s CPU      0.66s WALL (       1 calls)
     potinit      :      0.28s CPU      0.29s WALL (       1 calls)
     hinit0       :      0.39s CPU      0.40s WALL (       1 calls)

     Called by electrons:
     c_bands      :     19.28s CPU     19.61s WALL (      14 calls)
     sum_band     :      5.97s CPU      6.11s WALL (      14 calls)
     v_of_rho     :      0.59s CPU      0.63s WALL (      15 calls)
     newd         :      2.13s CPU      2.16s WALL (      15 calls)
     mix_rho      :      2.06s CPU      2.09s WALL (      14 calls)

     Called by c_bands:
     init_us_2    :      0.62s CPU      0.63s WALL (     150 calls)
     cegterg      :     17.71s CPU     18.03s WALL (      70 calls)

     Called by sum_band:
     sum_band:bec :      0.03s CPU      0.03s WALL (      70 calls)
     addusdens    :      3.50s CPU      3.56s WALL (      14 calls)

     Called by *egterg:
     h_psi        :      9.58s CPU      9.83s WALL (     317 calls)
     s_psi        :      1.17s CPU      1.18s WALL (     317 calls)
     g_psi        :      0.03s CPU      0.03s WALL (     242 calls)
     cdiaghg      :      4.85s CPU      4.90s WALL (     312 calls)

     Called by h_psi:
     h_psi:pot    :      9.53s CPU      9.77s WALL (     317 calls)
     h_psi:calbec :      1.45s CPU      1.51s WALL (     317 calls)
     vloc_psi     :      6.87s CPU      7.05s WALL (     317 calls)
     add_vuspsi   :      1.20s CPU      1.21s WALL (     317 calls)

     General routines
     calbec       :      2.03s CPU      2.13s WALL (     407 calls)
     fft          :      0.42s CPU      0.46s WALL (     204 calls)
     ffts         :      1.10s CPU      1.11s WALL (    1546 calls)
     fftw         :      7.81s CPU      8.01s WALL (   26896 calls)
     interpolate  :      0.05s CPU      0.05s WALL (      15 calls)
 
     Parallel routines
     fft_scatt_xy :      0.93s CPU      0.95s WALL (   28646 calls)
     fft_scatt_yz :      4.50s CPU      4.64s WALL (   28646 calls)
 
     PWSCF        :     33.21s CPU     33.96s WALL

 
   This run was terminated on:   0: 5:47  24Dec2021            

=------------------------------------------------------------------------------=
   JOB DONE.
=------------------------------------------------------------------------------=
