
     Program PWSCF v.6.4 starts on 24Dec2021 at 23: 6:47 

     This program is part of the open-source Quantum ESPRESSO suite
     for quantum simulation of materials; please cite
         "P. Giannozzi et al., J. Phys.:Condens. Matter 21 395502 (2009);
         "P. Giannozzi et al., J. Phys.:Condens. Matter 29 465901 (2017);
          URL http://www.quantum-espresso.org", 
     in publications or presentations arising from this work. More details at
     http://www.quantum-espresso.org/quote

     Parallel version (MPI), running on    40 processors

     MPI processes distributed on     1 nodes
     R & G space division:  proc/nbgrp/npool/nimage =      40
     Waiting for input...
     Reading input from standard input
Warning: card    &IONS ignored
Warning: card      ION_DYNAMICS = 'BFGS' ignored
Warning: card   / ignored
Warning: card    &CELL ignored
Warning: card      CELL_DYNAMICS = 'BFGS', ignored
Warning: card    / ignored

     Current dimensions of program PWSCF are:
     Max number of different atomic species (ntypx) = 10
     Max number of k-points (npk) =  40000
     Max angular momentum in pseudopotentials (lmaxx) =  3

     Subspace diagonalization in iterative solution of the eigenvalue problem:
     one sub-group per band group will be used
     scalapack distributed-memory algorithm (size of sub-group:  4*  4 procs)

 
     Parallelization info
     --------------------
     sticks:   dense  smooth     PW     G-vecs:    dense   smooth      PW
     Min         273     136     36                22602     7989    1111
     Max         274     137     37                22604     7995    1117
     Sum       10935    5475   1463               904119   319723   44545
 


     bravais-lattice index     =            0
     lattice parameter (alat)  =      18.8841  a.u.
     unit-cell volume          =    7838.7740 (a.u.)^3
     number of atoms/cell      =           48
     number of atomic types    =            2
     number of electrons       =       288.00
     number of Kohn-Sham states=          173
     kinetic-energy cutoff     =      45.0000  Ry
     charge density cutoff     =     360.0000  Ry
     convergence threshold     =      1.0E-06
     mixing beta               =       0.7000
     number of iterations used =            8  local-TF  mixing
     Exchange-correlation      = SLA PW GGX GGC ( 1  4  2  2 0 0)

     celldm(1)=  18.884058  celldm(2)=   0.000000  celldm(3)=   0.000000
     celldm(4)=   0.000000  celldm(5)=   0.000000  celldm(6)=   0.000000

     crystal axes: (cart. coord. in units of alat)
               a(1) = (   1.000000   0.000000   0.000000 )  
               a(2) = (   0.083200   1.070329   0.000000 )  
               a(3) = (   0.071373   0.222009   1.087539 )  

     reciprocal axes: (cart. coord. in units 2 pi/alat)
               b(1) = (  1.000000 -0.077733 -0.049759 )  
               b(2) = (  0.000000  0.934292 -0.190726 )  
               b(3) = (  0.000000  0.000000  0.919508 )  


     PseudoPot. # 1 for Mo read from file:
     ~/pseudo/Mo.pw91-n-van.UPF
     MD5 check sum: Not computed, couldn't open file
     Pseudo is Ultrasoft + core correction, Zval =  6.0
     Generated by new atomic code, or converted to UPF format
     Using radial grid of  965 points,  3 beta functions with: 
                l(1) =   1
                l(2) =   2
                l(3) =   2
     Q(r) pseudized with  8 coefficients,  rinner =    1.000   1.000   1.000
                                                       1.200   1.200

     PseudoPot. # 2 for S  read from file:
     ~/pseudo/S.pw91-van_ak.UPF
     MD5 check sum: Not computed, couldn't open file
     Pseudo is Ultrasoft, Zval =  6.0
     Generated by new atomic code, or converted to UPF format
     Using radial grid of  811 points,  6 beta functions with: 
                l(1) =   0
                l(2) =   0
                l(3) =   1
                l(4) =   1
                l(5) =   2
                l(6) =   2
     Q(r) pseudized with  8 coefficients,  rinner =    1.100   1.100   1.100
                                                       1.100   1.100

     atomic species   valence    mass     pseudopotential
        Mo             6.00    95.50000     Mo( 1.00)
        S              6.00    32.06500     S ( 1.00)

     No symmetry found



   Cartesian axes

     site n.     atom                  positions (alat units)
         1           Mo  tau(   1) = (   0.5443371   1.0522464   0.7098412  )
         2           Mo  tau(   2) = (   0.2736150   0.8386622   0.6584757  )
         3           Mo  tau(   3) = (   0.2774157   1.2201582   0.9333571  )
         4           Mo  tau(   4) = (   0.4606739   0.7735577   0.9114342  )
         5           Mo  tau(   5) = (   0.4051312   0.3123070   0.0226651  )
         6           Mo  tau(   6) = (   0.1656161   0.1287340   0.0431374  )
         7           Mo  tau(   7) = (   1.0183211   0.4733373   0.6210477  )
         8           Mo  tau(   8) = (   0.3550215   0.2104973   0.6239329  )
         9           Mo  tau(   9) = (   1.0530397   1.0137863   0.1146647  )
        10           Mo  tau(  10) = (   0.5399878   0.5497292   0.0542412  )
        11           Mo  tau(  11) = (   0.5878693   0.1198778   0.4833668  )
        12           Mo  tau(  12) = (   1.0697918   0.8473547   0.3980065  )
        13           Mo  tau(  13) = (   1.0454961   0.7066551   0.7796881  )
        14           Mo  tau(  14) = (   0.6433973   0.2372357   0.7294571  )
        15           Mo  tau(  15) = (   0.6853488   0.5930038   0.9246177  )
        16           Mo  tau(  16) = (   0.9954210   0.3478628   0.9179170  )
        17           S   tau(  17) = (   0.2606573   1.0890980   0.7149116  )
        18           S   tau(  18) = (   1.0928556   1.0759083   0.3523382  )
        19           S   tau(  19) = (   0.5111556   0.8155001   0.6683174  )
        20           S   tau(  20) = (   0.3094405   0.5250069   0.0695475  )
        21           S   tau(  21) = (   0.2702988   0.9575366   0.0808322  )
        22           S   tau(  22) = (   0.2895258   0.7920768   0.4089632  )
        23           S   tau(  23) = (   0.4647797   1.0862762   0.4830467  )
        24           S   tau(  24) = (   0.5981825   0.6884010   0.2361386  )
        25           S   tau(  25) = (   0.1187978   0.2901151   0.2180891  )
        26           S   tau(  26) = (   0.9430663   0.5979360   0.9678821  )
        27           S   tau(  27) = (   0.4003010   0.0833623   0.0943614  )
        28           S   tau(  28) = (   0.4390726   0.2142023   0.8495599  )
        29           S   tau(  29) = (   0.2108091   0.6024175   0.6587399  )
        30           S   tau(  30) = (   0.2316027   0.3935401   0.8951158  )
        31           S   tau(  31) = (   0.4537671   0.5327647   0.8784408  )
        32           S   tau(  32) = (   0.7386774   0.3463973   0.9276958  )
        33           S   tau(  33) = (   0.7710398   1.1226461   0.2809865  )
        34           S   tau(  34) = (   0.4502797   1.0314930   0.9348390  )
        35           S   tau(  35) = (   0.9509912   0.8093705   0.1905432  )
        36           S   tau(  36) = (   1.0140945   0.8834354   0.6229282  )
        37           S   tau(  37) = (   0.7786921   1.0873854   0.6627287  )
        38           S   tau(  38) = (   0.6970481   0.8366788   0.9388927  )
        39           S   tau(  39) = (   1.0435914   1.1846271   0.9777935  )
        40           S   tau(  40) = (   0.2168833   0.8336713   0.8951702  )
        41           S   tau(  41) = (   0.8247986   0.6087207   0.7084598  )
        42           S   tau(  42) = (   0.4174639   0.2875739   0.2878286  )
        43           S   tau(  43) = (   0.8952111   0.2830172   0.7002830  )
        44           S   tau(  44) = (   0.9089737   0.1685233   0.0728073  )
        45           S   tau(  45) = (   0.6350313   0.3393230   0.0805455  )
        46           S   tau(  46) = (   0.5483500   0.3431160   0.5427624  )
        47           S   tau(  47) = (   0.9684298   0.6143838   0.4319291  )
        48           S   tau(  48) = (   0.1683567   0.3185367   0.5192436  )

     number of k points=     8  Marzari-Vanderbilt smearing, width (Ry)=  0.0200
                       cart. coord. in units 2pi/alat
        k(    1) = (   0.0000000   0.0000000   0.0000000), wk =   0.2500000
        k(    2) = (   0.0000000   0.0000000  -0.4597538), wk =   0.2500000
        k(    3) = (   0.0000000  -0.4671459   0.0953628), wk =   0.2500000
        k(    4) = (   0.0000000  -0.4671459  -0.3643910), wk =   0.2500000
        k(    5) = (  -0.5000000   0.0388666   0.0248796), wk =   0.2500000
        k(    6) = (  -0.5000000   0.0388666  -0.4348742), wk =   0.2500000
        k(    7) = (  -0.5000000  -0.4282793   0.1202424), wk =   0.2500000
        k(    8) = (  -0.5000000  -0.4282793  -0.3395114), wk =   0.2500000

     Dense  grid:   904119 G-vectors     FFT dimensions: ( 120, 125, 128)

     Smooth grid:   319723 G-vectors     FFT dimensions: (  81,  90,  90)

     Estimated max dynamical RAM per process >     172.37 MB

     Estimated total dynamical RAM >       6.73 GB

     Initial potential from superposition of free atoms

     starting charge  287.97477, renormalised to  288.00000
     Starting wfcs are  272 randomized atomic wfcs

     total cpu time spent up to now is       10.0 secs

     Self-consistent Calculation

     iteration #  1     ecut=    45.00 Ry     beta= 0.70
     Davidson diagonalization with overlap
     ethr =  1.00E-02,  avg # of iterations =  2.0

     total cpu time spent up to now is       28.1 secs

     total energy              =   -1122.73205547 Ry
     Harris-Foulkes estimate   =   -1127.31039942 Ry
     estimated scf accuracy    <      13.39526161 Ry

     iteration #  2     ecut=    45.00 Ry     beta= 0.70
     Davidson diagonalization with overlap
     ethr =  4.65E-03,  avg # of iterations =  2.0

     total cpu time spent up to now is       44.9 secs

     total energy              =   -1124.54139111 Ry
     Harris-Foulkes estimate   =   -1125.92017157 Ry
     estimated scf accuracy    <       9.16516391 Ry

     iteration #  3     ecut=    45.00 Ry     beta= 0.70
     Davidson diagonalization with overlap
     ethr =  3.18E-03,  avg # of iterations =  1.1

     total cpu time spent up to now is       58.0 secs

     total energy              =   -1125.17640067 Ry
     Harris-Foulkes estimate   =   -1125.29892914 Ry
     estimated scf accuracy    <       1.03033245 Ry

     iteration #  4     ecut=    45.00 Ry     beta= 0.70
     Davidson diagonalization with overlap
     ethr =  3.58E-04,  avg # of iterations =  2.2

     total cpu time spent up to now is       72.3 secs

     total energy              =   -1125.23689251 Ry
     Harris-Foulkes estimate   =   -1125.27527226 Ry
     estimated scf accuracy    <       0.19446717 Ry

     iteration #  5     ecut=    45.00 Ry     beta= 0.70
     Davidson diagonalization with overlap
     ethr =  6.75E-05,  avg # of iterations =  8.2

     total cpu time spent up to now is       99.6 secs

     total energy              =   -1125.26207934 Ry
     Harris-Foulkes estimate   =   -1125.28733697 Ry
     estimated scf accuracy    <       0.12679783 Ry

     iteration #  6     ecut=    45.00 Ry     beta= 0.70
     Davidson diagonalization with overlap
     ethr =  4.40E-05,  avg # of iterations =  2.0

     total cpu time spent up to now is      113.5 secs

     total energy              =   -1125.27115184 Ry
     Harris-Foulkes estimate   =   -1125.27593157 Ry
     estimated scf accuracy    <       0.04095179 Ry

     iteration #  7     ecut=    45.00 Ry     beta= 0.70
     Davidson diagonalization with overlap
     ethr =  1.42E-05,  avg # of iterations =  1.6

     total cpu time spent up to now is      127.1 secs

     total energy              =   -1125.27365506 Ry
     Harris-Foulkes estimate   =   -1125.27445245 Ry
     estimated scf accuracy    <       0.00600872 Ry

     iteration #  8     ecut=    45.00 Ry     beta= 0.70
     Davidson diagonalization with overlap
     ethr =  2.09E-06,  avg # of iterations = 10.2

     total cpu time spent up to now is      150.6 secs

     total energy              =   -1125.27425696 Ry
     Harris-Foulkes estimate   =   -1125.27456066 Ry
     estimated scf accuracy    <       0.00200215 Ry

     iteration #  9     ecut=    45.00 Ry     beta= 0.70
     Davidson diagonalization with overlap
     ethr =  6.95E-07,  avg # of iterations =  1.6

     total cpu time spent up to now is      164.2 secs

     total energy              =   -1125.27439190 Ry
     Harris-Foulkes estimate   =   -1125.27446699 Ry
     estimated scf accuracy    <       0.00054622 Ry

     iteration # 10     ecut=    45.00 Ry     beta= 0.70
     Davidson diagonalization with overlap
     ethr =  1.90E-07,  avg # of iterations =  3.1

     total cpu time spent up to now is      180.5 secs

     total energy              =   -1125.27446475 Ry
     Harris-Foulkes estimate   =   -1125.27448120 Ry
     estimated scf accuracy    <       0.00008656 Ry

     iteration # 11     ecut=    45.00 Ry     beta= 0.70
     Davidson diagonalization with overlap
     ethr =  3.01E-08,  avg # of iterations =  3.5

     total cpu time spent up to now is      200.3 secs

     total energy              =   -1125.27448117 Ry
     Harris-Foulkes estimate   =   -1125.27448680 Ry
     estimated scf accuracy    <       0.00004446 Ry

     iteration # 12     ecut=    45.00 Ry     beta= 0.70
     Davidson diagonalization with overlap
     ethr =  1.54E-08,  avg # of iterations =  1.5

     total cpu time spent up to now is      214.7 secs

     total energy              =   -1125.27448340 Ry
     Harris-Foulkes estimate   =   -1125.27448456 Ry
     estimated scf accuracy    <       0.00000827 Ry

     iteration # 13     ecut=    45.00 Ry     beta= 0.70
     Davidson diagonalization with overlap
     ethr =  2.87E-09,  avg # of iterations =  4.0

     total cpu time spent up to now is      232.9 secs

     total energy              =   -1125.27448450 Ry
     Harris-Foulkes estimate   =   -1125.27448508 Ry
     estimated scf accuracy    <       0.00000383 Ry

     iteration # 14     ecut=    45.00 Ry     beta= 0.70
     Davidson diagonalization with overlap
     ethr =  1.33E-09,  avg # of iterations =  2.2

     total cpu time spent up to now is      246.9 secs

     End of self-consistent calculation

          k = 0.0000 0.0000 0.0000 ( 39967 PWs)   bands (ev):

    -9.5879  -8.8878  -8.8264  -8.7235  -8.5747  -8.4907  -8.4295  -8.3396
    -8.2957  -8.1998  -8.1302  -8.0938  -8.0701  -7.9762  -7.8990  -7.8746
    -7.7901  -7.7465  -7.6304  -7.5274  -7.4950  -7.3969  -7.2788  -7.2579
    -7.1745  -7.1139  -7.0014  -6.7366  -6.7149  -6.3850  -6.2456  -5.9225
    -1.2531  -1.1603  -0.9165  -0.8859  -0.7151  -0.5806  -0.4744  -0.4208
    -0.3685  -0.3145  -0.2915  -0.2188  -0.1666  -0.1439  -0.0911  -0.0634
     0.0392   0.0580   0.0951   0.1856   0.2188   0.2683   0.2912   0.3202
     0.3819   0.4849   0.5011   0.5272   0.6013   0.6700   0.7074   0.7143
     0.7659   0.8193   0.8280   0.8878   0.9338   0.9624   1.0472   1.0639
     1.0677   1.1645   1.1843   1.2196   1.2561   1.3003   1.3178   1.3906
     1.4121   1.4540   1.4922   1.5441   1.5866   1.6539   1.7222   1.7700
     1.8344   1.8533   1.9393   1.9937   2.0077   2.0227   2.0702   2.1081
     2.1655   2.2290   2.2625   2.3725   2.4267   2.4705   2.5330   2.5628
     2.6788   2.7398   2.7564   2.8349   2.8741   2.9319   3.0227   3.0582
     3.0662   3.1531   3.2445   3.2570   3.3618   3.4594   3.4635   3.5264
     3.5862   3.6585   3.7599   3.8100   3.8596   3.8848   3.9065   3.9404
     4.0965   4.1629   4.1796   4.2412   4.2649   4.3561   4.4381   4.5133
     4.5544   4.6406   4.7050   4.7760   4.8230   4.9017   4.9371   4.9629
     4.9919   5.0865   5.1290   5.1826   5.2844   5.3352   5.4166   5.4667
     5.5787   5.6085   5.7158   5.7683   5.8469   5.8817   5.9428   6.0032
     6.0923   6.1465   6.2170   6.2581   6.2938   6.3443   6.4023   6.4429
     6.5687   6.5939   6.6370   6.6646   6.7454

          k = 0.0000 0.0000-0.4598 ( 39970 PWs)   bands (ev):

    -9.5789  -8.8766  -8.8360  -8.7699  -8.5937  -8.4857  -8.3835  -8.3490
    -8.2801  -8.1739  -8.1520  -8.1150  -8.0851  -7.9622  -7.8874  -7.8658
    -7.7778  -7.7612  -7.6150  -7.5335  -7.4599  -7.3704  -7.3038  -7.2832
    -7.1803  -7.1307  -7.0333  -6.7534  -6.6613  -6.3860  -6.2467  -5.9226
    -1.2394  -1.1793  -0.9189  -0.8833  -0.7032  -0.5524  -0.4963  -0.4323
    -0.3830  -0.3470  -0.3374  -0.2368  -0.2006  -0.1470  -0.1200  -0.0356
     0.0577   0.0901   0.1261   0.1902   0.2394   0.3045   0.3146   0.3679
     0.3750   0.4318   0.4729   0.5166   0.6443   0.6620   0.6860   0.7069
     0.7744   0.7890   0.8321   0.8670   0.9252   0.9720   1.0541   1.0932
     1.1502   1.1628   1.1700   1.1941   1.2650   1.3019   1.3432   1.3600
     1.4405   1.4533   1.4910   1.5274   1.5943   1.6337   1.6753   1.7362
     1.7627   1.8296   1.8963   1.9575   2.0626   2.0859   2.1113   2.1349
     2.2391   2.2740   2.3301   2.4236   2.4349   2.4685   2.5563   2.5894
     2.6139   2.6666   2.7234   2.8328   2.8706   2.9347   2.9614   3.0396
     3.0980   3.2259   3.2511   3.3205   3.3497   3.4095   3.4753   3.5545
     3.5824   3.6380   3.7119   3.7397   3.8050   3.8388   3.9649   4.0091
     4.0821   4.1300   4.2047   4.2211   4.2942   4.3877   4.4535   4.4702
     4.5379   4.6389   4.6825   4.7582   4.8182   4.8278   4.9489   5.0071
     5.0590   5.1103   5.1520   5.2462   5.2650   5.3335   5.4154   5.4593
     5.5377   5.5594   5.6970   5.7828   5.8333   5.9163   5.9589   6.0146
     6.0940   6.1322   6.1920   6.2132   6.3053   6.3937   6.4849   6.4947
     6.5370   6.5942   6.6447   6.6815   6.7317

          k = 0.0000-0.4671 0.0954 ( 39948 PWs)   bands (ev):

    -9.5317  -9.1020  -8.8070  -8.5937  -8.5784  -8.4672  -8.4209  -8.3713
    -8.2430  -8.1994  -8.1570  -8.1360  -8.0428  -7.9728  -7.8867  -7.8446
    -7.8143  -7.7784  -7.6097  -7.5339  -7.4937  -7.3555  -7.3074  -7.2507
    -7.1739  -7.1160  -7.0435  -6.7251  -6.6964  -6.3860  -6.2453  -5.9222
    -1.4192  -1.2071  -0.8824  -0.7639  -0.7102  -0.6393  -0.5211  -0.4680
    -0.3806  -0.3275  -0.2555  -0.2299  -0.1750  -0.1350  -0.0690  -0.0157
     0.0728   0.1120   0.1342   0.1748   0.1909   0.2534   0.3363   0.3695
     0.4341   0.4465   0.5384   0.5713   0.6258   0.6586   0.6836   0.7171
     0.7324   0.7551   0.8180   0.9109   0.9661   0.9854   1.0168   1.0381
     1.0962   1.1310   1.1786   1.2354   1.2559   1.2997   1.3388   1.3560
     1.4386   1.4911   1.5271   1.5694   1.6591   1.6718   1.6875   1.7469
     1.7627   1.7848   1.8495   1.9313   2.0482   2.0849   2.1269   2.1500
     2.1869   2.2384   2.3531   2.3687   2.4439   2.4479   2.4948   2.6005
     2.6748   2.7516   2.7659   2.8208   2.8539   2.9454   3.0413   3.0615
     3.0726   3.1144   3.1706   3.2567   3.3183   3.4219   3.4323   3.5807
     3.6168   3.6444   3.7038   3.7346   3.8148   3.8855   3.9698   3.9786
     4.0661   4.1147   4.2080   4.2372   4.2923   4.3192   4.4267   4.5138
     4.5514   4.5933   4.6990   4.7489   4.8535   4.8616   4.8925   4.9657
     5.0444   5.1401   5.2015   5.2502   5.2848   5.3625   5.3733   5.3950
     5.5330   5.5879   5.6247   5.7396   5.7948   5.8973   5.9363   6.0339
     6.1437   6.1685   6.1928   6.2552   6.3739   6.4089   6.4477   6.4999
     6.5530   6.5845   6.6244   6.6856   6.7690

          k = 0.0000-0.4671-0.3644 ( 39934 PWs)   bands (ev):

    -9.5249  -9.1058  -8.7878  -8.6480  -8.6040  -8.4355  -8.3826  -8.3741
    -8.2867  -8.1919  -8.1463  -8.1104  -8.0522  -7.9734  -7.8945  -7.8319
    -7.8184  -7.7891  -7.5931  -7.5274  -7.4528  -7.4276  -7.3242  -7.2200
    -7.1853  -7.1063  -7.0206  -6.7534  -6.6831  -6.3851  -6.2453  -5.9222
    -1.4306  -1.2049  -0.9039  -0.7630  -0.7108  -0.6368  -0.5448  -0.4264
    -0.3776  -0.3601  -0.2746  -0.2262  -0.1256  -0.1105  -0.0655  -0.0356
     0.0011   0.1020   0.1798   0.2027   0.2281   0.2706   0.3104   0.3937
     0.4400   0.4553   0.4829   0.5330   0.5713   0.6294   0.6694   0.7144
     0.7528   0.7905   0.8206   0.8949   0.9121   0.9702   0.9769   1.0518
     1.0742   1.1626   1.2047   1.2440   1.2580   1.2999   1.3788   1.4014
     1.4485   1.5411   1.5583   1.5940   1.6270   1.6430   1.6750   1.7450
     1.7894   1.8772   1.9344   1.9612   2.0495   2.0750   2.1034   2.1649
     2.1683   2.2711   2.3206   2.3352   2.3625   2.4425   2.4971   2.5472
     2.6587   2.7421   2.7657   2.8086   2.8220   2.9432   3.0182   3.0806
     3.1127   3.1623   3.2353   3.2874   3.3502   3.3742   3.4301   3.4591
     3.6108   3.6987   3.7197   3.7766   3.8010   3.8858   3.9560   4.0392
     4.0646   4.1369   4.1846   4.2197   4.2961   4.3118   4.3732   4.4371
     4.5688   4.6328   4.6822   4.7543   4.7969   4.8359   4.9490   4.9763
     5.0711   5.1193   5.1815   5.2307   5.2769   5.3228   5.4071   5.4603
     5.5201   5.6062   5.6681   5.7556   5.7823   5.8606   5.9359   5.9935
     6.0760   6.1384   6.1926   6.3180   6.3632   6.3922   6.4363   6.5424
     6.5486   6.5901   6.6209   6.7061   6.7580

          k =-0.5000 0.0389 0.0249 ( 39988 PWs)   bands (ev):

    -9.5443  -8.9764  -8.8064  -8.7447  -8.5724  -8.4909  -8.3930  -8.3539
    -8.2941  -8.2221  -8.1389  -8.1189  -8.0495  -7.9765  -7.9198  -7.8279
    -7.7950  -7.7533  -7.6169  -7.5208  -7.4621  -7.4117  -7.2919  -7.2107
    -7.1982  -7.1159  -7.0031  -6.7368  -6.7011  -6.3634  -6.2710  -5.9216
    -1.2634  -1.1052  -0.8540  -0.8018  -0.7691  -0.6017  -0.5393  -0.4460
    -0.3509  -0.3337  -0.2942  -0.2151  -0.1896  -0.1527  -0.0858  -0.0164
    -0.0116   0.0656   0.1050   0.1732   0.2153   0.2900   0.3001   0.3110
     0.3633   0.4338   0.4474   0.4905   0.5427   0.5895   0.6572   0.6852
     0.7767   0.8173   0.8365   0.8648   0.9382   0.9648   1.0446   1.0687
     1.0846   1.1010   1.1340   1.1921   1.2644   1.2953   1.3121   1.3497
     1.4737   1.4860   1.5492   1.5669   1.6125   1.7151   1.7541   1.7643
     1.8183   1.8834   1.8995   1.9616   2.0051   2.0658   2.1189   2.1275
     2.2321   2.2491   2.3372   2.3769   2.4641   2.5176   2.5470   2.6044
     2.6283   2.7755   2.7889   2.8249   2.8607   2.9183   3.0098   3.0991
     3.1353   3.1838   3.2798   3.3425   3.3805   3.4440   3.4972   3.5270
     3.5547   3.6792   3.7324   3.7501   3.8270   3.8871   3.9872   3.9941
     4.0363   4.0541   4.1987   4.2384   4.2947   4.3016   4.3967   4.4804
     4.5319   4.6174   4.6599   4.6710   4.7940   4.8654   4.8675   4.9471
     5.0699   5.0825   5.1479   5.2694   5.2853   5.3708   5.4128   5.4567
     5.5085   5.6470   5.7120   5.7400   5.8441   5.9278   5.9725   6.0386
     6.0879   6.1500   6.1920   6.3131   6.3496   6.3914   6.4411   6.5078
     6.5844   6.5990   6.6256   6.6895   6.7437

          k =-0.5000 0.0389-0.4349 ( 39960 PWs)   bands (ev):

    -9.5372  -8.9561  -8.7996  -8.7772  -8.6423  -8.4872  -8.3876  -8.3276
    -8.2750  -8.2127  -8.1441  -8.1243  -8.0419  -7.9665  -7.9129  -7.8247
    -7.7859  -7.7635  -7.6011  -7.5406  -7.4439  -7.4027  -7.3018  -7.2349
    -7.1782  -7.1234  -7.0355  -6.7461  -6.6665  -6.3650  -6.2731  -5.9217
    -1.2563  -1.1132  -0.8707  -0.8109  -0.7832  -0.5659  -0.4636  -0.4393
    -0.3631  -0.3573  -0.2897  -0.2518  -0.2201  -0.1945  -0.1518  -0.1064
     0.0447   0.0734   0.1366   0.1402   0.1858   0.2810   0.3269   0.3731
     0.4000   0.4348   0.5002   0.5746   0.5861   0.6121   0.6647   0.6911
     0.7328   0.7970   0.8375   0.8769   0.9172   0.9456   0.9765   1.0387
     1.0731   1.0931   1.1802   1.1961   1.2658   1.2773   1.3568   1.3837
     1.4150   1.4303   1.4925   1.5998   1.6578   1.6891   1.7195   1.7835
     1.8041   1.8631   1.9452   1.9542   2.0549   2.0827   2.1385   2.1902
     2.2249   2.2811   2.3174   2.3922   2.4319   2.4975   2.5096   2.5768
     2.6952   2.7507   2.7690   2.8296   2.8556   2.9241   2.9843   3.1040
     3.1556   3.2859   3.3053   3.3455   3.3879   3.4297   3.4925   3.5514
     3.5981   3.6501   3.6782   3.7793   3.8403   3.8622   3.8942   4.0141
     4.0353   4.1027   4.1759   4.2123   4.2758   4.3332   4.3834   4.4115
     4.5349   4.6447   4.6729   4.7183   4.8162   4.8878   4.9196   4.9657
     5.0106   5.0486   5.1274   5.2887   5.2982   5.3117   5.4026   5.4206
     5.5489   5.6074   5.6832   5.7201   5.8725   5.9327   5.9661   6.0279
     6.0869   6.1207   6.2102   6.2369   6.3032   6.4323   6.4878   6.4985
     6.5375   6.6003   6.6495   6.6998   6.7468

          k =-0.5000-0.4283 0.1202 ( 40012 PWs)   bands (ev):

    -9.4943  -9.0447  -8.9250  -8.6578  -8.5627  -8.4956  -8.4460  -8.3311
    -8.2412  -8.1895  -8.1685  -8.1128  -8.0256  -7.9654  -7.8972  -7.8166
    -7.7856  -7.7770  -7.6289  -7.5566  -7.4494  -7.3648  -7.2988  -7.2503
    -7.1914  -7.1125  -7.0401  -6.7151  -6.6936  -6.3643  -6.2705  -5.9216
    -1.3428  -1.2230  -0.8383  -0.8067  -0.6529  -0.5922  -0.5145  -0.4314
    -0.4173  -0.3466  -0.3315  -0.2374  -0.2182  -0.1535  -0.0733  -0.0395
    -0.0272   0.0347   0.1203   0.1957   0.2260   0.2722   0.2931   0.3428
     0.4207   0.4378   0.4973   0.5899   0.6148   0.6234   0.6706   0.7466
     0.7625   0.8157   0.8466   0.8829   0.8867   0.9797   1.0160   1.0306
     1.0834   1.1138   1.1408   1.2235   1.2681   1.2986   1.3343   1.3732
     1.4122   1.4584   1.4912   1.5338   1.6420   1.6529   1.7278   1.7837
     1.8443   1.8717   1.9602   1.9666   2.0120   2.0744   2.1433   2.1927
     2.2361   2.2572   2.3037   2.3597   2.4242   2.5349   2.6044   2.6218
     2.6853   2.7238   2.8063   2.8288   2.8823   2.9293   2.9749   3.0588
     3.1065   3.2056   3.2692   3.3110   3.3595   3.3980   3.4419   3.5061
     3.6001   3.6258   3.7417   3.7872   3.8128   3.8731   3.9199   3.9491
     4.0261   4.1080   4.1704   4.1847   4.3254   4.3619   4.3996   4.4095
     4.4890   4.6023   4.7117   4.7544   4.7943   4.8692   4.9432   4.9988
     5.0125   5.0657   5.1455   5.2230   5.3044   5.3637   5.4002   5.4486
     5.5302   5.5528   5.6604   5.7837   5.8280   5.8821   5.9453   6.0263
     6.0995   6.1705   6.2236   6.2948   6.3628   6.3725   6.4388   6.4988
     6.5980   6.6366   6.7106   6.7153   6.7275

          k =-0.5000-0.4283-0.3395 ( 39944 PWs)   bands (ev):

    -9.4891  -9.0446  -8.9228  -8.6654  -8.5837  -8.4719  -8.4480  -8.3362
    -8.2813  -8.1580  -8.1466  -8.1195  -8.0508  -7.9572  -7.9003  -7.8193
    -7.7944  -7.7667  -7.6150  -7.5368  -7.4423  -7.4048  -7.3164  -7.2347
    -7.1634  -7.0989  -7.0319  -6.7517  -6.6820  -6.3640  -6.2725  -5.9217
    -1.3491  -1.2247  -0.8480  -0.7965  -0.6619  -0.5967  -0.5272  -0.4438
    -0.4205  -0.3648  -0.2988  -0.2674  -0.2069  -0.1830  -0.0989  -0.0718
     0.0109   0.1357   0.1634   0.2046   0.2457   0.2885   0.3049   0.3593
     0.3735   0.4545   0.4774   0.5088   0.5595   0.6171   0.6984   0.7439
     0.7563   0.7878   0.8103   0.8752   0.9272   0.9580   0.9965   1.0480
     1.0944   1.1455   1.1903   1.2070   1.2456   1.3080   1.3530   1.3736
     1.4287   1.4340   1.4965   1.5492   1.6211   1.6818   1.7718   1.8197
     1.8653   1.8922   1.9475   1.9656   2.0143   2.0600   2.0934   2.1952
     2.2213   2.2486   2.3003   2.3482   2.4348   2.5016   2.5143   2.6485
     2.7019   2.7544   2.8128   2.8395   2.8527   2.9839   2.9912   3.1326
     3.1590   3.2097   3.2558   3.2950   3.3820   3.4150   3.4814   3.5271
     3.5720   3.6271   3.6738   3.7793   3.8223   3.8647   3.9074   3.9427
     4.0691   4.1021   4.1216   4.2085   4.2880   4.3390   4.3582   4.4094
     4.4982   4.5658   4.7125   4.7845   4.8410   4.8790   4.9401   4.9707
     5.0471   5.1441   5.1769   5.2065   5.2950   5.3228   5.3318   5.3636
     5.4483   5.5935   5.6871   5.7529   5.7952   5.9298   5.9356   5.9985
     6.1364   6.1668   6.2228   6.2724   6.3089   6.3591   6.4522   6.5497
     6.5652   6.6110   6.6315   6.6922   6.7661

     the Fermi energy is     5.0162 ev

!    total energy              =   -1125.27448411 Ry
     Harris-Foulkes estimate   =   -1125.27448489 Ry
     estimated scf accuracy    <       0.00000098 Ry

     The total energy is the sum of the following terms:

     one-electron contribution =    -316.01262692 Ry
     hartree contribution      =     304.44578187 Ry
     xc contribution           =    -443.81382340 Ry
     ewald contribution        =    -669.88854490 Ry
     smearing contrib. (-TS)   =      -0.00527075 Ry

     convergence has been achieved in  14 iterations

     Forces acting on atoms (cartesian axes, Ry/au):

     atom    1 type  1   force =    -0.01358218   -0.00470622    0.03261868
     atom    2 type  1   force =    -0.00837953    0.05668310    0.00198505
     atom    3 type  1   force =     0.00658175   -0.01653024    0.01513694
     atom    4 type  1   force =    -0.03299364    0.03520152   -0.03321436
     atom    5 type  1   force =    -0.00078598   -0.01848345    0.06138303
     atom    6 type  1   force =    -0.00729120    0.02899753    0.03421702
     atom    7 type  1   force =    -0.03445452    0.05803078   -0.04457234
     atom    8 type  1   force =    -0.02922150    0.02131006   -0.01520320
     atom    9 type  1   force =    -0.04909615   -0.05666569    0.04718555
     atom   10 type  1   force =     0.04844648    0.09866266    0.15234976
     atom   11 type  1   force =     0.00744144   -0.00662837   -0.15624959
     atom   12 type  1   force =    -0.00459214   -0.00432460   -0.06637487
     atom   13 type  1   force =    -0.03338515   -0.04707547   -0.03116854
     atom   14 type  1   force =    -0.00369548    0.01142942    0.04654865
     atom   15 type  1   force =     0.03747301   -0.02245206    0.01359431
     atom   16 type  1   force =    -0.02948396    0.00443017    0.02385085
     atom   17 type  2   force =     0.02033289    0.00980739   -0.02726875
     atom   18 type  2   force =    -0.01894233   -0.00884120   -0.00410303
     atom   19 type  2   force =     0.01539826   -0.02408481   -0.01114108
     atom   20 type  2   force =     0.00443610    0.01160997   -0.02163477
     atom   21 type  2   force =     0.02215099    0.02609447   -0.02273707
     atom   22 type  2   force =    -0.01141839    0.00409723    0.01656073
     atom   23 type  2   force =    -0.01676623    0.00068274    0.01681017
     atom   24 type  2   force =    -0.02142573   -0.06108619   -0.07834446
     atom   25 type  2   force =     0.04752309   -0.03489869   -0.05502036
     atom   26 type  2   force =     0.00976080    0.01183833    0.01218331
     atom   27 type  2   force =    -0.01385597    0.04598955    0.00099548
     atom   28 type  2   force =     0.03128825   -0.03218169   -0.03411228
     atom   29 type  2   force =     0.03398444   -0.00812362    0.02818999
     atom   30 type  2   force =    -0.05141806   -0.03750288    0.01970317
     atom   31 type  2   force =     0.03802378    0.02811104   -0.04730159
     atom   32 type  2   force =    -0.00474875    0.00382480    0.00000726
     atom   33 type  2   force =    -0.02661059    0.02281716    0.07233146
     atom   34 type  2   force =     0.01426219   -0.03434467    0.02404962
     atom   35 type  2   force =     0.02205817    0.00592208    0.00853118
     atom   36 type  2   force =     0.00900907    0.00249569    0.01931642
     atom   37 type  2   force =     0.01150389   -0.02954414    0.02850793
     atom   38 type  2   force =     0.00687013    0.00563597   -0.02425580
     atom   39 type  2   force =    -0.00717717   -0.00832342   -0.01879850
     atom   40 type  2   force =    -0.00464066   -0.02106504    0.01383666
     atom   41 type  2   force =    -0.00024965    0.01746961   -0.00299248
     atom   42 type  2   force =    -0.02112255   -0.01433614   -0.01089038
     atom   43 type  2   force =    -0.00007143   -0.00975454    0.00191956
     atom   44 type  2   force =     0.03661719   -0.00055565    0.00498942
     atom   45 type  2   force =    -0.00707831   -0.00714889   -0.02088120
     atom   46 type  2   force =     0.00369253    0.02121408   -0.00025452
     atom   47 type  2   force =     0.01206068   -0.01540708    0.01735294
     atom   48 type  2   force =     0.01357214   -0.00829060    0.01236402

     Total force =     0.402986     Total SCF correction =     0.001850
 
     init_run     :      9.07s CPU      9.26s WALL (       1 calls)
     electrons    :    233.33s CPU    236.94s WALL (       1 calls)
     forces       :      4.89s CPU      5.02s WALL (       1 calls)

     Called by init_run:
     wfcinit      :      6.87s CPU      6.98s WALL (       1 calls)
     potinit      :      0.60s CPU      0.61s WALL (       1 calls)
     hinit0       :      0.79s CPU      0.80s WALL (       1 calls)

     Called by electrons:
     c_bands      :    196.11s CPU    198.17s WALL (      14 calls)
     sum_band     :     30.31s CPU     31.44s WALL (      14 calls)
     v_of_rho     :      1.32s CPU      1.37s WALL (      15 calls)
     newd         :      4.52s CPU      4.85s WALL (      15 calls)
     mix_rho      :      1.24s CPU      1.31s WALL (      14 calls)

     Called by c_bands:
     init_us_2    :      2.90s CPU      2.92s WALL (     240 calls)
     cegterg      :    183.46s CPU    185.45s WALL (     112 calls)

     Called by sum_band:
     sum_band:bec :      0.30s CPU      0.30s WALL (     112 calls)
     addusdens    :      6.24s CPU      6.96s WALL (      14 calls)

     Called by *egterg:
     h_psi        :    101.05s CPU    102.46s WALL (     484 calls)
     s_psi        :     19.97s CPU     20.00s WALL (     484 calls)
     g_psi        :      0.35s CPU      0.35s WALL (     364 calls)
     cdiaghg      :     33.80s CPU     34.27s WALL (     476 calls)

     Called by h_psi:
     h_psi:pot    :    100.33s CPU    101.72s WALL (     484 calls)
     h_psi:calbec :     21.60s CPU     22.08s WALL (     484 calls)
     vloc_psi     :     58.27s CPU     59.15s WALL (     484 calls)
     add_vuspsi   :     20.44s CPU     20.49s WALL (     484 calls)

     General routines
     calbec       :     32.55s CPU     33.24s WALL (     628 calls)
     fft          :      1.25s CPU      1.32s WALL (     204 calls)
     ffts         :      0.60s CPU      0.66s WALL (     428 calls)
     fftw         :     65.91s CPU     66.91s WALL (  113036 calls)
     interpolate  :      0.12s CPU      0.13s WALL (      15 calls)
 
     Parallel routines
     fft_scatt_xy :      7.92s CPU      8.04s WALL (  113668 calls)
     fft_scatt_yz :     26.59s CPU     27.10s WALL (  113668 calls)
 
     PWSCF        :   4m 8.00s CPU   4m12.17s WALL

 
   This run was terminated on:  23:10:59  24Dec2021            

=------------------------------------------------------------------------------=
   JOB DONE.
=------------------------------------------------------------------------------=
