
     Program PWSCF v.6.4 starts on 25Dec2021 at  0: 9:18 

     This program is part of the open-source Quantum ESPRESSO suite
     for quantum simulation of materials; please cite
         "P. Giannozzi et al., J. Phys.:Condens. Matter 21 395502 (2009);
         "P. Giannozzi et al., J. Phys.:Condens. Matter 29 465901 (2017);
          URL http://www.quantum-espresso.org", 
     in publications or presentations arising from this work. More details at
     http://www.quantum-espresso.org/quote

     Parallel version (MPI), running on    40 processors

     MPI processes distributed on     1 nodes
     R & G space division:  proc/nbgrp/npool/nimage =      40
     Waiting for input...
     Reading input from standard input
Warning: card    &IONS ignored
Warning: card      ION_DYNAMICS = 'BFGS' ignored
Warning: card   / ignored
Warning: card    &CELL ignored
Warning: card      CELL_DYNAMICS = 'BFGS', ignored
Warning: card    / ignored

     Current dimensions of program PWSCF are:
     Max number of different atomic species (ntypx) = 10
     Max number of k-points (npk) =  40000
     Max angular momentum in pseudopotentials (lmaxx) =  3

     Subspace diagonalization in iterative solution of the eigenvalue problem:
     one sub-group per band group will be used
     scalapack distributed-memory algorithm (size of sub-group:  4*  4 procs)

     Found symmetry operation: I + (  0.0000 -0.5000  0.0000)
     This is a supercell, fractional translations are disabled
 
     Parallelization info
     --------------------
     sticks:   dense  smooth     PW     G-vecs:    dense   smooth      PW
     Min          91      45     12                15413     5441     782
     Max          92      46     13                15436     5460     803
     Sum        3667    1813    511               616783   217823   31719
 


     bravais-lattice index     =            0
     lattice parameter (alat)  =      12.1536  a.u.
     unit-cell volume          =    5345.9129 (a.u.)^3
     number of atoms/cell      =           36
     number of atomic types    =            2
     number of electrons       =       216.00
     number of Kohn-Sham states=          130
     kinetic-energy cutoff     =      45.0000  Ry
     charge density cutoff     =     360.0000  Ry
     convergence threshold     =      1.0E-06
     mixing beta               =       0.7000
     number of iterations used =            8  local-TF  mixing
     Exchange-correlation      = SLA PW GGX GGC ( 1  4  2  2 0 0)

     celldm(1)=  12.153560  celldm(2)=   0.000000  celldm(3)=   0.000000
     celldm(4)=   0.000000  celldm(5)=   0.000000  celldm(6)=   0.000000

     crystal axes: (cart. coord. in units of alat)
               a(1) = (   1.000000   0.000000   0.000000 )  
               a(2) = (  -0.500000   0.866026   0.000000 )  
               a(3) = (   0.000000   0.000000   3.438592 )  

     reciprocal axes: (cart. coord. in units 2 pi/alat)
               b(1) = (  1.000000  0.577350  0.000000 )  
               b(2) = (  0.000000  1.154700  0.000000 )  
               b(3) = (  0.000000  0.000000  0.290817 )  


     PseudoPot. # 1 for Mo read from file:
     ~/pseudo/Mo.pw91-n-van.UPF
     MD5 check sum: Not computed, couldn't open file
     Pseudo is Ultrasoft + core correction, Zval =  6.0
     Generated by new atomic code, or converted to UPF format
     Using radial grid of  965 points,  3 beta functions with: 
                l(1) =   1
                l(2) =   2
                l(3) =   2
     Q(r) pseudized with  8 coefficients,  rinner =    1.000   1.000   1.000
                                                       1.200   1.200

     PseudoPot. # 2 for S  read from file:
     ~/pseudo/S.pw91-van_ak.UPF
     MD5 check sum: Not computed, couldn't open file
     Pseudo is Ultrasoft, Zval =  6.0
     Generated by new atomic code, or converted to UPF format
     Using radial grid of  811 points,  6 beta functions with: 
                l(1) =   0
                l(2) =   0
                l(3) =   1
                l(4) =   1
                l(5) =   2
                l(6) =   2
     Q(r) pseudized with  8 coefficients,  rinner =    1.100   1.100   1.100
                                                       1.100   1.100

     atomic species   valence    mass     pseudopotential
        Mo             6.00    95.50000     Mo( 1.00)
        S              6.00    32.06500     S ( 1.00)

     No symmetry found



   Cartesian axes

     site n.     atom                  positions (alat units)
         1           Mo  tau(   1) = (   0.2888553   0.6995536   1.6012862  )
         2           Mo  tau(   2) = (   0.4720899   0.0212638   2.8205782  )
         3           Mo  tau(   3) = (   0.3750000   0.6495192   0.3322790  )
         4           Mo  tau(   4) = (   0.5388553   0.2665410   1.6012862  )
         5           Mo  tau(   5) = (   0.7220898   0.4542767   2.8205782  )
         6           Mo  tau(   6) = (   0.6250000   0.2165063   0.3322790  )
         7           Mo  tau(   7) = (   0.9720898   0.0212638   2.8205782  )
         8           Mo  tau(   8) = (   0.0388553   0.2665410   1.6012862  )
         9           Mo  tau(   9) = (  -0.2111447   0.6995536   1.6012862  )
        10           Mo  tau(  10) = (   0.2220899   0.4542767   2.8205782  )
        11           Mo  tau(  11) = (   0.1250000   0.2165063   0.3322790  )
        12           Mo  tau(  12) = (  -0.1250000   0.6495192   0.3322790  )
        13           S   tau(  13) = (   0.2220904   0.7429515   2.5750845  )
        14           S   tau(  14) = (   0.2220904   0.7429515   3.0660200  )
        15           S   tau(  15) = (   0.3749997   0.0721689   0.0867969  )
        16           S   tau(  16) = (   0.3749997   0.0721689   0.5776964  )
        17           S   tau(  17) = (   0.5388550   0.5552163   1.3557261  )
        18           S   tau(  18) = (   0.5388550   0.5552163   1.8468248  )
        19           S   tau(  19) = (   0.4720904   0.3099387   2.5750845  )
        20           S   tau(  20) = (   0.4720904   0.3099387   3.0660196  )
        21           S   tau(  21) = (   0.6249998   0.5051816   0.0867969  )
        22           S   tau(  22) = (   0.6249997   0.5051817   0.5776964  )
        23           S   tau(  23) = (   0.7888549   0.1222036   1.3557261  )
        24           S   tau(  24) = (   0.7888549   0.1222036   1.8468248  )
        25           S   tau(  25) = (   0.8749998   0.0721689   0.0867969  )
        26           S   tau(  26) = (   0.8749998   0.0721689   0.5776964  )
        27           S   tau(  27) = (  -0.0279096   0.3099387   2.5750845  )
        28           S   tau(  28) = (  -0.0279096   0.3099387   3.0660200  )
        29           S   tau(  29) = (  -0.2779096   0.7429515   2.5750845  )
        30           S   tau(  30) = (  -0.2779096   0.7429515   3.0660200  )
        31           S   tau(  31) = (   0.1249998   0.5051817   0.0867969  )
        32           S   tau(  32) = (   0.1249998   0.5051817   0.5776964  )
        33           S   tau(  33) = (   0.2888551   0.1222036   1.3557260  )
        34           S   tau(  34) = (   0.2888551   0.1222036   1.8468247  )
        35           S   tau(  35) = (   0.0388551   0.5552163   1.3557261  )
        36           S   tau(  36) = (   0.0388551   0.5552163   1.8468248  )

     number of k points=     5  Marzari-Vanderbilt smearing, width (Ry)=  0.0200
                       cart. coord. in units 2pi/alat
        k(    1) = (   0.0000000   0.0000000   0.0000000), wk =   0.2222222
        k(    2) = (   0.0000000   0.3849001   0.0000000), wk =   0.4444444
        k(    3) = (   0.3333333   0.5773502   0.0000000), wk =   0.4444444
        k(    4) = (  -0.3333333   0.1924501   0.0000000), wk =   0.4444444
        k(    5) = (   0.3333333   0.1924501   0.0000000), wk =   0.4444444

     Dense  grid:   616783 G-vectors     FFT dimensions: (  75,  75, 256)

     Smooth grid:   217823 G-vectors     FFT dimensions: (  54,  54, 180)

     Estimated max dynamical RAM per process >      98.58 MB

     Estimated total dynamical RAM >       3.85 GB

     Initial potential from superposition of free atoms

     starting charge  215.98107, renormalised to  216.00000
     Starting wfcs are  204 randomized atomic wfcs

     total cpu time spent up to now is        4.5 secs

     Self-consistent Calculation

     iteration #  1     ecut=    45.00 Ry     beta= 0.70
     Davidson diagonalization with overlap
     ethr =  1.00E-02,  avg # of iterations =  2.0

     total cpu time spent up to now is       10.7 secs

     total energy              =    -844.24019242 Ry
     Harris-Foulkes estimate   =    -846.83688942 Ry
     estimated scf accuracy    <       6.62673677 Ry

     iteration #  2     ecut=    45.00 Ry     beta= 0.70
     Davidson diagonalization with overlap
     ethr =  3.07E-03,  avg # of iterations =  2.8

     total cpu time spent up to now is       16.4 secs

     total energy              =    -845.46409518 Ry
     Harris-Foulkes estimate   =    -845.62204819 Ry
     estimated scf accuracy    <       0.81063126 Ry

     iteration #  3     ecut=    45.00 Ry     beta= 0.70
     Davidson diagonalization with overlap
     ethr =  3.75E-04,  avg # of iterations =  2.0

     total cpu time spent up to now is       21.5 secs

     total energy              =    -845.47462432 Ry
     Harris-Foulkes estimate   =    -845.54400377 Ry
     estimated scf accuracy    <       0.18713332 Ry

     iteration #  4     ecut=    45.00 Ry     beta= 0.70
     Davidson diagonalization with overlap
     ethr =  8.66E-05,  avg # of iterations =  3.6

     total cpu time spent up to now is       28.4 secs

     total energy              =    -845.51621901 Ry
     Harris-Foulkes estimate   =    -845.54626357 Ry
     estimated scf accuracy    <       0.09873355 Ry

     iteration #  5     ecut=    45.00 Ry     beta= 0.70
     Davidson diagonalization with overlap
     ethr =  4.57E-05,  avg # of iterations =  2.8

     total cpu time spent up to now is       33.9 secs

     total energy              =    -845.53120022 Ry
     Harris-Foulkes estimate   =    -845.53157366 Ry
     estimated scf accuracy    <       0.00380122 Ry

     iteration #  6     ecut=    45.00 Ry     beta= 0.70
     Davidson diagonalization with overlap
     ethr =  1.76E-06,  avg # of iterations = 10.2

     total cpu time spent up to now is       47.5 secs

     total energy              =    -845.53189472 Ry
     Harris-Foulkes estimate   =    -845.53317465 Ry
     estimated scf accuracy    <       0.00902545 Ry

     iteration #  7     ecut=    45.00 Ry     beta= 0.70
     Davidson diagonalization with overlap
     ethr =  1.76E-06,  avg # of iterations =  2.2

     total cpu time spent up to now is       53.3 secs

     total energy              =    -845.53160661 Ry
     Harris-Foulkes estimate   =    -845.53215849 Ry
     estimated scf accuracy    <       0.00316992 Ry

     iteration #  8     ecut=    45.00 Ry     beta= 0.70
     Davidson diagonalization with overlap
     ethr =  1.47E-06,  avg # of iterations =  3.0

     total cpu time spent up to now is       59.0 secs

     total energy              =    -845.53173290 Ry
     Harris-Foulkes estimate   =    -845.53184510 Ry
     estimated scf accuracy    <       0.00040433 Ry

     iteration #  9     ecut=    45.00 Ry     beta= 0.70
     Davidson diagonalization with overlap
     ethr =  1.87E-07,  avg # of iterations =  4.0

     total cpu time spent up to now is       66.1 secs

     total energy              =    -845.53186483 Ry
     Harris-Foulkes estimate   =    -845.53187354 Ry
     estimated scf accuracy    <       0.00008274 Ry

     iteration # 10     ecut=    45.00 Ry     beta= 0.70
     Davidson diagonalization with overlap
     ethr =  3.83E-08,  avg # of iterations =  1.4

     total cpu time spent up to now is       70.9 secs

     total energy              =    -845.53185441 Ry
     Harris-Foulkes estimate   =    -845.53186756 Ry
     estimated scf accuracy    <       0.00004356 Ry

     iteration # 11     ecut=    45.00 Ry     beta= 0.70
     Davidson diagonalization with overlap
     ethr =  2.02E-08,  avg # of iterations =  3.0

     total cpu time spent up to now is       76.9 secs

     total energy              =    -845.53186244 Ry
     Harris-Foulkes estimate   =    -845.53186499 Ry
     estimated scf accuracy    <       0.00001349 Ry

     iteration # 12     ecut=    45.00 Ry     beta= 0.70
     Davidson diagonalization with overlap
     ethr =  6.24E-09,  avg # of iterations =  2.6

     total cpu time spent up to now is       82.1 secs

     total energy              =    -845.53186306 Ry
     Harris-Foulkes estimate   =    -845.53186351 Ry
     estimated scf accuracy    <       0.00000396 Ry

     iteration # 13     ecut=    45.00 Ry     beta= 0.70
     Davidson diagonalization with overlap
     ethr =  1.83E-09,  avg # of iterations =  3.0

     total cpu time spent up to now is       87.7 secs

     total energy              =    -845.53186316 Ry
     Harris-Foulkes estimate   =    -845.53186348 Ry
     estimated scf accuracy    <       0.00000248 Ry

     iteration # 14     ecut=    45.00 Ry     beta= 0.70
     Davidson diagonalization with overlap
     ethr =  1.15E-09,  avg # of iterations =  1.0

     total cpu time spent up to now is       92.3 secs

     total energy              =    -845.53186292 Ry
     Harris-Foulkes estimate   =    -845.53186325 Ry
     estimated scf accuracy    <       0.00000191 Ry

     iteration # 15     ecut=    45.00 Ry     beta= 0.70
     Davidson diagonalization with overlap
     ethr =  8.83E-10,  avg # of iterations =  3.0

     total cpu time spent up to now is       98.4 secs

     total energy              =    -845.53186293 Ry
     Harris-Foulkes estimate   =    -845.53186336 Ry
     estimated scf accuracy    <       0.00000393 Ry

     iteration # 16     ecut=    45.00 Ry     beta= 0.70
     Davidson diagonalization with overlap
     ethr =  8.83E-10,  avg # of iterations =  1.2

     total cpu time spent up to now is      103.0 secs

     total energy              =    -845.53186263 Ry
     Harris-Foulkes estimate   =    -845.53186298 Ry
     estimated scf accuracy    <       0.00000245 Ry

     iteration # 17     ecut=    45.00 Ry     beta= 0.70
     Davidson diagonalization with overlap
     ethr =  8.83E-10,  avg # of iterations =  2.6

     total cpu time spent up to now is      108.1 secs

     End of self-consistent calculation

          k = 0.0000 0.0000 0.0000 ( 27203 PWs)   bands (ev):

    -8.5846  -8.4259  -8.4161  -7.4157  -7.2314  -7.1697  -6.8459  -6.7697
    -6.7665  -6.7416  -6.7389  -6.6965  -6.6878  -6.6878  -6.6877  -6.5340
    -6.4999  -6.4979  -6.4732  -6.4708  -6.4225  -6.4224  -6.4224  -6.4056
    -0.2910  -0.2111  -0.1620  -0.1595  -0.1300  -0.1270  -0.0550  -0.0549
    -0.0549  -0.0418   0.0982   0.2974   0.6737   0.7675   0.7742   0.8089
     0.8161   0.8867   0.8876   0.8876   0.9328   1.2974   1.4894   1.5026
     1.5416   1.5534   1.5758   1.5773   1.5780   1.7155   2.3822   2.3965
     2.3973   2.4259   2.4266   2.4404   2.4684   2.4684   2.4684   2.9198
     2.9237   2.9474   2.9507   2.9880   2.9881   3.2705   3.3118   3.6081
     3.6324   3.6791   3.7010   3.7173   3.7250   3.7269   3.8533   3.9903
     4.0240   4.0345   4.0595   4.0688   4.1010   4.1011   4.4308   4.5015
     4.5384   4.5408   4.5852   4.5880   4.6290   4.6291   4.6293   4.6320
     4.7797   4.8509   4.8540   4.8758   4.8807   4.9218   4.9219   4.9219
     5.0311   5.2934   5.5733   6.0285   7.5272   7.5341   7.5345   7.5599
     7.5603   7.5662   7.5929   7.5930   7.5933   7.9922   8.0437   8.0463
     8.0766   8.0792   8.1097   8.1114   8.1117   8.1117   8.1289   8.1903
     8.2392   8.2615

          k = 0.0000 0.3849 0.0000 ( 27224 PWs)   bands (ev):

    -8.2170  -8.0613  -8.0546  -7.3457  -7.2249  -7.2210  -7.2104  -7.0567
    -7.0082  -6.8565  -6.8258  -6.7805  -6.7365  -6.7212  -6.7098  -6.7098
    -6.6575  -6.6499  -6.5208  -6.5066  -6.4292  -6.4097  -6.4094  -6.4008
     0.1086   0.2316   0.2501   0.2707   0.3620   0.3960   0.3962   0.4026
     0.4729   0.4758   0.4984   0.6814   0.7151   0.7248   0.7550   0.8038
     0.8177   0.8178   1.2925   1.4466   1.4514   1.5097   1.6592   1.7027
     1.7213   1.7445   1.7755   1.7977   1.7986   1.8980   2.1875   2.2245
     2.2655   2.2672   2.2735   2.4232   2.4247   2.4541   2.4866   2.5005
     2.7138   2.7418   2.7667   2.7843   2.9257   3.0761   3.1327   3.2641
     3.2644   3.2754   3.2915   3.3243   3.3486   3.3908   3.5010   3.5260
     3.5686   3.6131   3.7737   3.7886   3.8517   3.8530   3.8916   3.9564
     3.9944   4.0393   4.1606   4.1930   4.2283   4.2644   4.4884   4.5337
     4.5925   4.6077   4.7121   4.9966   5.0076   5.0395   5.0740   5.0742
     5.0749   5.1193   5.2617   5.3682   7.4864   7.4869   7.5519   7.5758
     7.6004   7.6282   7.6283   7.6347   7.6348   7.6488   7.6643   7.7801
     7.7875   7.8486   7.9282   7.9636   8.0009   8.0131   8.0250   8.0416
     8.0606   8.0632

          k = 0.3333 0.5774 0.0000 ( 27249 PWs)   bands (ev):

    -7.5986  -7.5984  -7.5872  -7.4511  -7.4461  -7.4461  -7.4458  -7.4446
    -7.4445  -6.9068  -6.9067  -6.8975  -6.7622  -6.7621  -6.7621  -6.7439
    -6.7315  -6.7313  -6.5489  -6.4853  -6.4471  -6.3439  -6.2945  -6.2605
     0.2379   0.2702   0.3241   0.4714   0.4778   0.4779   0.7738   0.7738
     0.7738   0.8508   0.8508   0.8537   0.9880   1.0477   1.1076   1.4805
     1.5405   1.6053   1.6057   1.6065   1.6595   1.6965   1.7905   1.7916
     1.8021   1.8029   1.8030   1.8708   1.9159   1.9169   1.9579   2.0278
     2.0281   2.0281   2.0407   2.0438   2.0450   2.0450   2.0667   2.3159
     2.3161   2.3324   2.4659   2.4663   2.4663   2.5780   2.5869   2.5870
     2.6168   2.6850   2.7172   3.2705   3.4235   3.5247   3.5529   3.5612
     3.5619   3.5945   3.5954   3.6114   3.6410   3.6410   3.6410   4.2954
     4.2960   4.4126   4.4566   4.4986   4.4987   4.5193   4.6142   4.6143
     4.6897   4.7135   4.7157   4.7582   4.7701   4.7705   4.7739   4.7742
     4.7746   5.4626   5.4960   5.5240   7.0946   7.1173   7.1542   7.1915
     7.1918   7.2079   7.4199   7.4199   7.4225   7.4966   7.5015   7.5016
     7.7961   7.7964   7.8029   7.8720   7.8769   7.8772   7.8910   7.8929
     7.8931   8.0395

          k =-0.3333 0.1925 0.0000 ( 27224 PWs)   bands (ev):

    -8.2201  -8.0613  -8.0528  -7.3676  -7.2283  -7.2106  -7.2091  -7.0567
    -7.0043  -6.8063  -6.8055  -6.7959  -6.7495  -6.7489  -6.7098  -6.7098
    -6.6570  -6.6270  -6.4956  -6.4951  -6.4472  -6.4464  -6.4094  -6.4094
     0.1053   0.2466   0.2470   0.2723   0.3544   0.3551   0.3962   0.3962
     0.4734   0.4984   0.5020   0.6845   0.7239   0.7254   0.7542   0.7562
     0.8176   0.8177   1.2178   1.5024   1.5175   1.5514   1.6918   1.7056
     1.7197   1.7481   1.7602   1.7987   1.7989   1.8938   2.1814   2.2318
     2.2654   2.2733   2.2735   2.4237   2.4237   2.4609   2.4616   2.4907
     2.6990   2.7557   2.7668   2.7843   2.9359   3.1336   3.1347   3.2632
     3.2634   3.2676   3.2680   3.3138   3.3554   3.3908   3.4920   3.5389
     3.5687   3.5729   3.7062   3.7098   3.8538   3.8541   3.8897   3.8922
     3.9639   4.1292   4.1555   4.2110   4.2275   4.2283   4.4922   4.5033
     4.6075   4.7121   4.7708   5.0116   5.0126   5.0429   5.0442   5.0741
     5.0743   5.1002   5.2613   5.4999   7.4711   7.4711   7.5226   7.5448
     7.5469   7.6264   7.6284   7.6346   7.6346   7.6632   7.6634   7.7620
     7.7849   7.8476   7.9126   7.9159   7.9789   8.0317   8.0320   8.0606
     8.0639   8.0789

          k = 0.3333 0.1925 0.0000 ( 27224 PWs)   bands (ev):

    -8.2169  -8.0613  -8.0546  -7.3453  -7.2249  -7.2212  -7.2104  -7.0567
    -7.0083  -6.8567  -6.8266  -6.7802  -6.7361  -6.7212  -6.7098  -6.7098
    -6.6575  -6.6503  -6.5209  -6.5070  -6.4285  -6.4096  -6.4094  -6.4006
     0.1087   0.2317   0.2498   0.2706   0.3629   0.3960   0.3962   0.4027
     0.4728   0.4755   0.4984   0.6813   0.7151   0.7234   0.7569   0.8038
     0.8177   0.8178   1.2943   1.4449   1.4513   1.5097   1.6629   1.6885
     1.7218   1.7568   1.7714   1.7977   1.7988   1.8979   2.1875   2.2245
     2.2655   2.2674   2.2735   2.4232   2.4247   2.4547   2.4865   2.5004
     2.7132   2.7424   2.7667   2.7843   2.9255   3.0759   3.1313   3.2642
     3.2644   3.2761   3.2916   3.3241   3.3487   3.3908   3.5008   3.5263
     3.5686   3.6140   3.7701   3.7954   3.8524   3.8530   3.8947   3.9549
     3.9945   4.0351   4.1593   4.1935   4.2283   4.2663   4.4882   4.5352
     4.5900   4.6076   4.7110   4.9967   5.0071   5.0403   5.0739   5.0742
     5.0747   5.1195   5.2618   5.3663   7.4866   7.4871   7.5507   7.5761
     7.6018   7.6283   7.6293   7.6347   7.6348   7.6488   7.6641   7.7805
     7.7875   7.8487   7.9284   7.9630   8.0009   8.0129   8.0245   8.0426
     8.0606   8.0632

     the Fermi energy is     6.2500 ev

!    total energy              =    -845.53186191 Ry
     Harris-Foulkes estimate   =    -845.53186274 Ry
     estimated scf accuracy    <       0.00000086 Ry

     The total energy is the sum of the following terms:

     one-electron contribution =    -424.33451164 Ry
     hartree contribution      =     329.25249241 Ry
     xc contribution           =    -334.24314233 Ry
     ewald contribution        =    -416.20748397 Ry
     smearing contrib. (-TS)   =       0.00078361 Ry

     convergence has been achieved in  17 iterations

     Forces acting on atoms (cartesian axes, Ry/au):

     atom    1 type  1   force =     0.00018339   -0.00034381   -0.00093764
     atom    2 type  1   force =     0.00000141   -0.00007598   -0.00147949
     atom    3 type  1   force =     0.00036947    0.00062057    0.00172761
     atom    4 type  1   force =    -0.00028273    0.00023806   -0.00124946
     atom    5 type  1   force =    -0.00041515    0.00018118   -0.00148424
     atom    6 type  1   force =     0.00042437   -0.00018521    0.00153577
     atom    7 type  1   force =    -0.00046793   -0.00022762   -0.00146481
     atom    8 type  1   force =     0.00031469    0.00005599   -0.00091567
     atom    9 type  1   force =    -0.00017554    0.00001633   -0.00087960
     atom   10 type  1   force =    -0.00008717    0.00045014   -0.00147571
     atom   11 type  1   force =    -0.00030739   -0.00054569    0.00172532
     atom   12 type  1   force =    -0.00027107    0.00020759    0.00155022
     atom   13 type  2   force =     0.00012897   -0.00008324   -0.00051953
     atom   14 type  2   force =    -0.00085485    0.00013831   -0.00547705
     atom   15 type  2   force =     0.00051833   -0.00026713    0.00549207
     atom   16 type  2   force =     0.00032667   -0.00001173    0.00132566
     atom   17 type  2   force =     0.00008240    0.00012298   -0.00058253
     atom   18 type  2   force =    -0.00011173   -0.00005762    0.00039795
     atom   19 type  2   force =     0.00022087   -0.00005327   -0.00091078
     atom   20 type  2   force =    -0.00078260    0.00012949   -0.00501207
     atom   21 type  2   force =     0.00079945    0.00022215    0.00549150
     atom   22 type  2   force =     0.00017399   -0.00027515    0.00132516
     atom   23 type  2   force =     0.00011045   -0.00002859   -0.00053434
     atom   24 type  2   force =     0.00007952   -0.00003591    0.00032860
     atom   25 type  2   force =     0.00070512   -0.00004936    0.00558218
     atom   26 type  2   force =    -0.00001937    0.00001168    0.00142900
     atom   27 type  2   force =     0.00021299   -0.00010668   -0.00058646
     atom   28 type  2   force =    -0.00079755    0.00012632   -0.00539180
     atom   29 type  2   force =     0.00023120   -0.00015265   -0.00055579
     atom   30 type  2   force =    -0.00076408    0.00008157   -0.00531685
     atom   31 type  2   force =     0.00047078    0.00008624    0.00564884
     atom   32 type  2   force =     0.00017076   -0.00009733    0.00139749
     atom   33 type  2   force =    -0.00006976   -0.00021272   -0.00057931
     atom   34 type  2   force =    -0.00007995    0.00012074    0.00040206
     atom   35 type  2   force =    -0.00006734    0.00004330   -0.00063502
     atom   36 type  2   force =     0.00002938   -0.00004298    0.00062871

     Total force =     0.016677     Total SCF correction =     0.002249
     SCF correction compared to forces is large: reduce conv_thr to get better values
 
     init_run     :      3.39s CPU      3.64s WALL (       1 calls)
     electrons    :    100.79s CPU    103.63s WALL (       1 calls)
     forces       :      1.95s CPU      2.03s WALL (       1 calls)

     Called by init_run:
     wfcinit      :      2.19s CPU      2.29s WALL (       1 calls)
     potinit      :      0.26s CPU      0.27s WALL (       1 calls)
     hinit0       :      0.37s CPU      0.41s WALL (       1 calls)

     Called by electrons:
     c_bands      :     79.15s CPU     80.23s WALL (      17 calls)
     sum_band     :     15.69s CPU     16.89s WALL (      17 calls)
     v_of_rho     :      1.11s CPU      1.16s WALL (      18 calls)
     newd         :      3.72s CPU      4.28s WALL (      18 calls)
     mix_rho      :      1.18s CPU      1.19s WALL (      17 calls)

     Called by c_bands:
     init_us_2    :      2.05s CPU      2.06s WALL (     180 calls)
     cegterg      :     73.72s CPU     74.77s WALL (      85 calls)

     Called by sum_band:
     sum_band:bec :      0.14s CPU      0.14s WALL (      85 calls)
     addusdens    :      5.95s CPU      6.90s WALL (      17 calls)

     Called by *egterg:
     h_psi        :     37.90s CPU     38.65s WALL (     342 calls)
     s_psi        :      7.40s CPU      7.41s WALL (     342 calls)
     g_psi        :      0.18s CPU      0.18s WALL (     252 calls)
     cdiaghg      :     16.09s CPU     16.36s WALL (     337 calls)

     Called by h_psi:
     h_psi:pot    :     37.51s CPU     38.25s WALL (     342 calls)
     h_psi:calbec :      8.64s CPU      8.98s WALL (     342 calls)
     vloc_psi     :     21.56s CPU     21.95s WALL (     342 calls)
     add_vuspsi   :      7.30s CPU      7.32s WALL (     342 calls)

     General routines
     calbec       :     12.76s CPU     13.28s WALL (     447 calls)
     fft          :      0.98s CPU      1.08s WALL (     243 calls)
     ffts         :      0.51s CPU      0.52s WALL (     537 calls)
     fftw         :     24.38s CPU     24.81s WALL (   65454 calls)
     interpolate  :      0.09s CPU      0.10s WALL (      18 calls)
 
     Parallel routines
     fft_scatt_xy :      2.61s CPU      2.65s WALL (   66234 calls)
     fft_scatt_yz :     11.76s CPU     12.03s WALL (   66234 calls)
 
     PWSCF        :   1m46.87s CPU   1m50.24s WALL

 
   This run was terminated on:   0:11: 8  25Dec2021            

=------------------------------------------------------------------------------=
   JOB DONE.
=------------------------------------------------------------------------------=

     Program PWSCF v.6.4 starts on 25Dec2021 at  0:12:18 

     This program is part of the open-source Quantum ESPRESSO suite
     for quantum simulation of materials; please cite
         "P. Giannozzi et al., J. Phys.:Condens. Matter 21 395502 (2009);
         "P. Giannozzi et al., J. Phys.:Condens. Matter 29 465901 (2017);
          URL http://www.quantum-espresso.org", 
     in publications or presentations arising from this work. More details at
     http://www.quantum-espresso.org/quote

     Parallel version (MPI), running on    40 processors

     MPI processes distributed on     1 nodes
     R & G space division:  proc/nbgrp/npool/nimage =      40
     Waiting for input...
     Reading input from standard input
Warning: card    &IONS ignored
Warning: card      ION_DYNAMICS = 'BFGS' ignored
Warning: card   / ignored
Warning: card    &CELL ignored
Warning: card      CELL_DYNAMICS = 'BFGS', ignored
Warning: card    / ignored

     Current dimensions of program PWSCF are:
     Max number of different atomic species (ntypx) = 10
     Max number of k-points (npk) =  40000
     Max angular momentum in pseudopotentials (lmaxx) =  3

     Subspace diagonalization in iterative solution of the eigenvalue problem:
     one sub-group per band group will be used
     scalapack distributed-memory algorithm (size of sub-group:  4*  4 procs)

     Found symmetry operation: I + (  0.0000 -0.5000  0.0000)
     This is a supercell, fractional translations are disabled
 
     Parallelization info
     --------------------
     sticks:   dense  smooth     PW     G-vecs:    dense   smooth      PW
     Min          91      45     12                15413     5441     782
     Max          92      46     13                15436     5460     803
     Sum        3667    1813    511               616783   217823   31719
 


     bravais-lattice index     =            0
     lattice parameter (alat)  =      12.1536  a.u.
     unit-cell volume          =    5345.9129 (a.u.)^3
     number of atoms/cell      =           36
     number of atomic types    =            2
     number of electrons       =       216.00
     number of Kohn-Sham states=          130
     kinetic-energy cutoff     =      45.0000  Ry
     charge density cutoff     =     360.0000  Ry
     convergence threshold     =      1.0E-06
     mixing beta               =       0.7000
     number of iterations used =            8  local-TF  mixing
     Exchange-correlation      = SLA PW GGX GGC ( 1  4  2  2 0 0)

     celldm(1)=  12.153560  celldm(2)=   0.000000  celldm(3)=   0.000000
     celldm(4)=   0.000000  celldm(5)=   0.000000  celldm(6)=   0.000000

     crystal axes: (cart. coord. in units of alat)
               a(1) = (   1.000000   0.000000   0.000000 )  
               a(2) = (  -0.500000   0.866026   0.000000 )  
               a(3) = (   0.000000   0.000000   3.438592 )  

     reciprocal axes: (cart. coord. in units 2 pi/alat)
               b(1) = (  1.000000  0.577350  0.000000 )  
               b(2) = (  0.000000  1.154700  0.000000 )  
               b(3) = (  0.000000  0.000000  0.290817 )  


     PseudoPot. # 1 for Mo read from file:
     ~/pseudo/Mo.pw91-n-van.UPF
     MD5 check sum: Not computed, couldn't open file
     Pseudo is Ultrasoft + core correction, Zval =  6.0
     Generated by new atomic code, or converted to UPF format
     Using radial grid of  965 points,  3 beta functions with: 
                l(1) =   1
                l(2) =   2
                l(3) =   2
     Q(r) pseudized with  8 coefficients,  rinner =    1.000   1.000   1.000
                                                       1.200   1.200

     PseudoPot. # 2 for S  read from file:
     ~/pseudo/S.pw91-van_ak.UPF
     MD5 check sum: Not computed, couldn't open file
     Pseudo is Ultrasoft, Zval =  6.0
     Generated by new atomic code, or converted to UPF format
     Using radial grid of  811 points,  6 beta functions with: 
                l(1) =   0
                l(2) =   0
                l(3) =   1
                l(4) =   1
                l(5) =   2
                l(6) =   2
     Q(r) pseudized with  8 coefficients,  rinner =    1.100   1.100   1.100
                                                       1.100   1.100

     atomic species   valence    mass     pseudopotential
        Mo             6.00    95.50000     Mo( 1.00)
        S              6.00    32.06500     S ( 1.00)

     No symmetry found



   Cartesian axes

     site n.     atom                  positions (alat units)
         1           Mo  tau(   1) = (   0.2888553   0.6995536   1.6012862  )
         2           Mo  tau(   2) = (   0.4720899   0.0212638   2.8205782  )
         3           Mo  tau(   3) = (   0.3750000   0.6495192   0.3322790  )
         4           Mo  tau(   4) = (   0.5388553   0.2665410   1.6012862  )
         5           Mo  tau(   5) = (   0.7220898   0.4542767   2.8205782  )
         6           Mo  tau(   6) = (   0.6250000   0.2165063   0.3322790  )
         7           Mo  tau(   7) = (   0.9720898   0.0212638   2.8205782  )
         8           Mo  tau(   8) = (   0.0388553   0.2665410   1.6012862  )
         9           Mo  tau(   9) = (  -0.2111447   0.6995536   1.6012862  )
        10           Mo  tau(  10) = (   0.2220899   0.4542767   2.8205782  )
        11           Mo  tau(  11) = (   0.1250000   0.2165063   0.3322790  )
        12           Mo  tau(  12) = (  -0.1250000   0.6495192   0.3322790  )
        13           S   tau(  13) = (   0.2220904   0.7429515   2.5750845  )
        14           S   tau(  14) = (   0.2220904   0.7429515   3.0660200  )
        15           S   tau(  15) = (   0.3749997   0.0721689   0.0867969  )
        16           S   tau(  16) = (   0.3749997   0.0721689   0.5776964  )
        17           S   tau(  17) = (   0.5388550   0.5552163   1.3557261  )
        18           S   tau(  18) = (   0.5388550   0.5552163   1.8468248  )
        19           S   tau(  19) = (   0.4720904   0.3099387   2.5750845  )
        20           S   tau(  20) = (   0.4720904   0.3099387   3.0660196  )
        21           S   tau(  21) = (   0.6249998   0.5051816   0.0867969  )
        22           S   tau(  22) = (   0.6249997   0.5051817   0.5776964  )
        23           S   tau(  23) = (   0.7888549   0.1222036   1.3557261  )
        24           S   tau(  24) = (   0.7888549   0.1222036   1.8468248  )
        25           S   tau(  25) = (   0.8749998   0.0721689   0.0867969  )
        26           S   tau(  26) = (   0.8749998   0.0721689   0.5776964  )
        27           S   tau(  27) = (  -0.0279096   0.3099387   2.5750845  )
        28           S   tau(  28) = (  -0.0279096   0.3099387   3.0660200  )
        29           S   tau(  29) = (  -0.2779096   0.7429515   2.5750845  )
        30           S   tau(  30) = (  -0.2779096   0.7429515   3.0660200  )
        31           S   tau(  31) = (   0.1249998   0.5051817   0.0867969  )
        32           S   tau(  32) = (   0.1249998   0.5051817   0.5776964  )
        33           S   tau(  33) = (   0.2888551   0.1222036   1.3557260  )
        34           S   tau(  34) = (   0.2888551   0.1222036   1.8468247  )
        35           S   tau(  35) = (   0.0388551   0.5552163   1.3557261  )
        36           S   tau(  36) = (   0.0388551   0.5552163   1.8468248  )

     number of k points=     5  Marzari-Vanderbilt smearing, width (Ry)=  0.0200
                       cart. coord. in units 2pi/alat
        k(    1) = (   0.0000000   0.0000000   0.0000000), wk =   0.2222222
        k(    2) = (   0.0000000   0.3849001   0.0000000), wk =   0.4444444
        k(    3) = (   0.3333333   0.5773502   0.0000000), wk =   0.4444444
        k(    4) = (  -0.3333333   0.1924501   0.0000000), wk =   0.4444444
        k(    5) = (   0.3333333   0.1924501   0.0000000), wk =   0.4444444

     Dense  grid:   616783 G-vectors     FFT dimensions: (  75,  75, 256)

     Smooth grid:   217823 G-vectors     FFT dimensions: (  54,  54, 180)

     Estimated max dynamical RAM per process >      98.58 MB

     Estimated total dynamical RAM >       3.85 GB

     Initial potential from superposition of free atoms

     starting charge  215.98107, renormalised to  216.00000
     Starting wfcs are  204 randomized atomic wfcs

     total cpu time spent up to now is        4.2 secs

     Self-consistent Calculation

     iteration #  1     ecut=    45.00 Ry     beta= 0.70
     Davidson diagonalization with overlap
     ethr =  1.00E-02,  avg # of iterations =  2.0

     total cpu time spent up to now is       10.3 secs

     total energy              =    -844.24019242 Ry
     Harris-Foulkes estimate   =    -846.83688942 Ry
     estimated scf accuracy    <       6.62673677 Ry

     iteration #  2     ecut=    45.00 Ry     beta= 0.70
     Davidson diagonalization with overlap
     ethr =  3.07E-03,  avg # of iterations =  2.8

     total cpu time spent up to now is       16.1 secs

     total energy              =    -845.46409518 Ry
     Harris-Foulkes estimate   =    -845.62204819 Ry
     estimated scf accuracy    <       0.81063126 Ry

     iteration #  3     ecut=    45.00 Ry     beta= 0.70
     Davidson diagonalization with overlap
     ethr =  3.75E-04,  avg # of iterations =  2.0

     total cpu time spent up to now is       21.1 secs

     total energy              =    -845.47462432 Ry
     Harris-Foulkes estimate   =    -845.54400377 Ry
     estimated scf accuracy    <       0.18713332 Ry

     iteration #  4     ecut=    45.00 Ry     beta= 0.70
     Davidson diagonalization with overlap
     ethr =  8.66E-05,  avg # of iterations =  3.6

     total cpu time spent up to now is       28.0 secs

     total energy              =    -845.51621901 Ry
     Harris-Foulkes estimate   =    -845.54626357 Ry
     estimated scf accuracy    <       0.09873355 Ry

     iteration #  5     ecut=    45.00 Ry     beta= 0.70
     Davidson diagonalization with overlap
     ethr =  4.57E-05,  avg # of iterations =  2.8

     total cpu time spent up to now is       33.5 secs

     total energy              =    -845.53120022 Ry
     Harris-Foulkes estimate   =    -845.53157366 Ry
     estimated scf accuracy    <       0.00380122 Ry

     iteration #  6     ecut=    45.00 Ry     beta= 0.70
     Davidson diagonalization with overlap
     ethr =  1.76E-06,  avg # of iterations = 10.2

     total cpu time spent up to now is       46.6 secs

     total energy              =    -845.53189472 Ry
     Harris-Foulkes estimate   =    -845.53317465 Ry
     estimated scf accuracy    <       0.00902545 Ry

     iteration #  7     ecut=    45.00 Ry     beta= 0.70
     Davidson diagonalization with overlap
     ethr =  1.76E-06,  avg # of iterations =  2.2

     total cpu time spent up to now is       51.6 secs

     total energy              =    -845.53160661 Ry
     Harris-Foulkes estimate   =    -845.53215849 Ry
     estimated scf accuracy    <       0.00316992 Ry

     iteration #  8     ecut=    45.00 Ry     beta= 0.70
     Davidson diagonalization with overlap
     ethr =  1.47E-06,  avg # of iterations =  3.0

     total cpu time spent up to now is       57.1 secs

     total energy              =    -845.53173290 Ry
     Harris-Foulkes estimate   =    -845.53184510 Ry
     estimated scf accuracy    <       0.00040433 Ry

     iteration #  9     ecut=    45.00 Ry     beta= 0.70
     Davidson diagonalization with overlap
     ethr =  1.87E-07,  avg # of iterations =  4.0

     total cpu time spent up to now is       64.2 secs

     total energy              =    -845.53186483 Ry
     Harris-Foulkes estimate   =    -845.53187354 Ry
     estimated scf accuracy    <       0.00008274 Ry

     iteration # 10     ecut=    45.00 Ry     beta= 0.70
     Davidson diagonalization with overlap
     ethr =  3.83E-08,  avg # of iterations =  1.4

     total cpu time spent up to now is       68.9 secs

     total energy              =    -845.53185441 Ry
     Harris-Foulkes estimate   =    -845.53186756 Ry
     estimated scf accuracy    <       0.00004356 Ry

     iteration # 11     ecut=    45.00 Ry     beta= 0.70
     Davidson diagonalization with overlap
     ethr =  2.02E-08,  avg # of iterations =  3.0

     total cpu time spent up to now is       74.9 secs

     total energy              =    -845.53186244 Ry
     Harris-Foulkes estimate   =    -845.53186499 Ry
     estimated scf accuracy    <       0.00001349 Ry

     iteration # 12     ecut=    45.00 Ry     beta= 0.70
     Davidson diagonalization with overlap
     ethr =  6.24E-09,  avg # of iterations =  2.6

     total cpu time spent up to now is       80.1 secs

     total energy              =    -845.53186306 Ry
     Harris-Foulkes estimate   =    -845.53186351 Ry
     estimated scf accuracy    <       0.00000396 Ry

     iteration # 13     ecut=    45.00 Ry     beta= 0.70
     Davidson diagonalization with overlap
     ethr =  1.83E-09,  avg # of iterations =  3.0

     total cpu time spent up to now is       85.7 secs

     total energy              =    -845.53186316 Ry
     Harris-Foulkes estimate   =    -845.53186348 Ry
     estimated scf accuracy    <       0.00000248 Ry

     iteration # 14     ecut=    45.00 Ry     beta= 0.70
     Davidson diagonalization with overlap
     ethr =  1.15E-09,  avg # of iterations =  1.0

     total cpu time spent up to now is       90.3 secs

     total energy              =    -845.53186292 Ry
     Harris-Foulkes estimate   =    -845.53186325 Ry
     estimated scf accuracy    <       0.00000191 Ry

     iteration # 15     ecut=    45.00 Ry     beta= 0.70
     Davidson diagonalization with overlap
     ethr =  8.83E-10,  avg # of iterations =  3.0

     total cpu time spent up to now is       96.3 secs

     total energy              =    -845.53186293 Ry
     Harris-Foulkes estimate   =    -845.53186336 Ry
     estimated scf accuracy    <       0.00000393 Ry

     iteration # 16     ecut=    45.00 Ry     beta= 0.70
     Davidson diagonalization with overlap
     ethr =  8.83E-10,  avg # of iterations =  1.2

     total cpu time spent up to now is      101.0 secs

     total energy              =    -845.53186263 Ry
     Harris-Foulkes estimate   =    -845.53186298 Ry
     estimated scf accuracy    <       0.00000245 Ry

     iteration # 17     ecut=    45.00 Ry     beta= 0.70
     Davidson diagonalization with overlap
     ethr =  8.83E-10,  avg # of iterations =  2.6

     total cpu time spent up to now is      106.1 secs

     End of self-consistent calculation

          k = 0.0000 0.0000 0.0000 ( 27203 PWs)   bands (ev):

    -8.5846  -8.4259  -8.4161  -7.4157  -7.2314  -7.1697  -6.8459  -6.7697
    -6.7665  -6.7416  -6.7389  -6.6965  -6.6878  -6.6878  -6.6877  -6.5340
    -6.4999  -6.4979  -6.4732  -6.4708  -6.4225  -6.4224  -6.4224  -6.4056
    -0.2910  -0.2111  -0.1620  -0.1595  -0.1300  -0.1270  -0.0550  -0.0549
    -0.0549  -0.0418   0.0982   0.2974   0.6737   0.7675   0.7742   0.8089
     0.8161   0.8867   0.8876   0.8876   0.9328   1.2974   1.4894   1.5026
     1.5416   1.5534   1.5758   1.5773   1.5780   1.7155   2.3822   2.3965
     2.3973   2.4259   2.4266   2.4404   2.4684   2.4684   2.4684   2.9198
     2.9237   2.9474   2.9507   2.9880   2.9881   3.2705   3.3118   3.6081
     3.6324   3.6791   3.7010   3.7173   3.7250   3.7269   3.8533   3.9903
     4.0240   4.0345   4.0595   4.0688   4.1010   4.1011   4.4308   4.5015
     4.5384   4.5408   4.5852   4.5880   4.6290   4.6291   4.6293   4.6320
     4.7797   4.8509   4.8540   4.8758   4.8807   4.9218   4.9219   4.9219
     5.0311   5.2934   5.5733   6.0285   7.5272   7.5341   7.5345   7.5599
     7.5603   7.5662   7.5929   7.5930   7.5933   7.9922   8.0437   8.0463
     8.0766   8.0792   8.1097   8.1114   8.1117   8.1117   8.1289   8.1903
     8.2392   8.2615

          k = 0.0000 0.3849 0.0000 ( 27224 PWs)   bands (ev):

    -8.2170  -8.0613  -8.0546  -7.3457  -7.2249  -7.2210  -7.2104  -7.0567
    -7.0082  -6.8565  -6.8258  -6.7805  -6.7365  -6.7212  -6.7098  -6.7098
    -6.6575  -6.6499  -6.5208  -6.5066  -6.4292  -6.4097  -6.4094  -6.4008
     0.1086   0.2316   0.2501   0.2707   0.3620   0.3960   0.3962   0.4026
     0.4729   0.4758   0.4984   0.6814   0.7151   0.7248   0.7550   0.8038
     0.8177   0.8178   1.2925   1.4466   1.4514   1.5097   1.6592   1.7027
     1.7213   1.7445   1.7755   1.7977   1.7986   1.8980   2.1875   2.2245
     2.2655   2.2672   2.2735   2.4232   2.4247   2.4541   2.4866   2.5005
     2.7138   2.7418   2.7667   2.7843   2.9257   3.0761   3.1327   3.2641
     3.2644   3.2754   3.2915   3.3243   3.3486   3.3908   3.5010   3.5260
     3.5686   3.6131   3.7737   3.7886   3.8517   3.8530   3.8916   3.9564
     3.9944   4.0393   4.1606   4.1930   4.2283   4.2644   4.4884   4.5337
     4.5925   4.6077   4.7121   4.9966   5.0076   5.0395   5.0740   5.0742
     5.0749   5.1193   5.2617   5.3682   7.4864   7.4869   7.5519   7.5758
     7.6004   7.6282   7.6283   7.6347   7.6348   7.6488   7.6643   7.7801
     7.7875   7.8486   7.9282   7.9636   8.0009   8.0131   8.0250   8.0416
     8.0606   8.0632

          k = 0.3333 0.5774 0.0000 ( 27249 PWs)   bands (ev):

    -7.5986  -7.5984  -7.5872  -7.4511  -7.4461  -7.4461  -7.4458  -7.4446
    -7.4445  -6.9068  -6.9067  -6.8975  -6.7622  -6.7621  -6.7621  -6.7439
    -6.7315  -6.7313  -6.5489  -6.4853  -6.4471  -6.3439  -6.2945  -6.2605
     0.2379   0.2702   0.3241   0.4714   0.4778   0.4779   0.7738   0.7738
     0.7738   0.8508   0.8508   0.8537   0.9880   1.0477   1.1076   1.4805
     1.5405   1.6053   1.6057   1.6065   1.6595   1.6965   1.7905   1.7916
     1.8021   1.8029   1.8030   1.8708   1.9159   1.9169   1.9579   2.0278
     2.0281   2.0281   2.0407   2.0438   2.0450   2.0450   2.0667   2.3159
     2.3161   2.3324   2.4659   2.4663   2.4663   2.5780   2.5869   2.5870
     2.6168   2.6850   2.7172   3.2705   3.4235   3.5247   3.5529   3.5612
     3.5619   3.5945   3.5954   3.6114   3.6410   3.6410   3.6410   4.2954
     4.2960   4.4126   4.4566   4.4986   4.4987   4.5193   4.6142   4.6143
     4.6897   4.7135   4.7157   4.7582   4.7701   4.7705   4.7739   4.7742
     4.7746   5.4626   5.4960   5.5240   7.0946   7.1173   7.1542   7.1915
     7.1918   7.2079   7.4199   7.4199   7.4225   7.4966   7.5015   7.5016
     7.7961   7.7964   7.8029   7.8720   7.8769   7.8772   7.8910   7.8929
     7.8931   8.0395

          k =-0.3333 0.1925 0.0000 ( 27224 PWs)   bands (ev):

    -8.2201  -8.0613  -8.0528  -7.3676  -7.2283  -7.2106  -7.2091  -7.0567
    -7.0043  -6.8063  -6.8055  -6.7959  -6.7495  -6.7489  -6.7098  -6.7098
    -6.6570  -6.6270  -6.4956  -6.4951  -6.4472  -6.4464  -6.4094  -6.4094
     0.1053   0.2466   0.2470   0.2723   0.3544   0.3551   0.3962   0.3962
     0.4734   0.4984   0.5020   0.6845   0.7239   0.7254   0.7542   0.7562
     0.8176   0.8177   1.2178   1.5024   1.5175   1.5514   1.6918   1.7056
     1.7197   1.7481   1.7602   1.7987   1.7989   1.8938   2.1814   2.2318
     2.2654   2.2733   2.2735   2.4237   2.4237   2.4609   2.4616   2.4907
     2.6990   2.7557   2.7668   2.7843   2.9359   3.1336   3.1347   3.2632
     3.2634   3.2676   3.2680   3.3138   3.3554   3.3908   3.4920   3.5389
     3.5687   3.5729   3.7062   3.7098   3.8538   3.8541   3.8897   3.8922
     3.9639   4.1292   4.1555   4.2110   4.2275   4.2283   4.4922   4.5033
     4.6075   4.7121   4.7708   5.0116   5.0126   5.0429   5.0442   5.0741
     5.0743   5.1002   5.2613   5.4999   7.4711   7.4711   7.5226   7.5448
     7.5469   7.6264   7.6284   7.6346   7.6346   7.6632   7.6634   7.7620
     7.7849   7.8476   7.9126   7.9159   7.9789   8.0317   8.0320   8.0606
     8.0639   8.0789

          k = 0.3333 0.1925 0.0000 ( 27224 PWs)   bands (ev):

    -8.2169  -8.0613  -8.0546  -7.3453  -7.2249  -7.2212  -7.2104  -7.0567
    -7.0083  -6.8567  -6.8266  -6.7802  -6.7361  -6.7212  -6.7098  -6.7098
    -6.6575  -6.6503  -6.5209  -6.5070  -6.4285  -6.4096  -6.4094  -6.4006
     0.1087   0.2317   0.2498   0.2706   0.3629   0.3960   0.3962   0.4027
     0.4728   0.4755   0.4984   0.6813   0.7151   0.7234   0.7569   0.8038
     0.8177   0.8178   1.2943   1.4449   1.4513   1.5097   1.6629   1.6885
     1.7218   1.7568   1.7714   1.7977   1.7988   1.8979   2.1875   2.2245
     2.2655   2.2674   2.2735   2.4232   2.4247   2.4547   2.4865   2.5004
     2.7132   2.7424   2.7667   2.7843   2.9255   3.0759   3.1313   3.2642
     3.2644   3.2761   3.2916   3.3241   3.3487   3.3908   3.5008   3.5263
     3.5686   3.6140   3.7701   3.7954   3.8524   3.8530   3.8947   3.9549
     3.9945   4.0351   4.1593   4.1935   4.2283   4.2663   4.4882   4.5352
     4.5900   4.6076   4.7110   4.9967   5.0071   5.0403   5.0739   5.0742
     5.0747   5.1195   5.2618   5.3663   7.4866   7.4871   7.5507   7.5761
     7.6018   7.6283   7.6293   7.6347   7.6348   7.6488   7.6641   7.7805
     7.7875   7.8487   7.9284   7.9630   8.0009   8.0129   8.0245   8.0426
     8.0606   8.0632

     the Fermi energy is     6.2500 ev

!    total energy              =    -845.53186191 Ry
     Harris-Foulkes estimate   =    -845.53186274 Ry
     estimated scf accuracy    <       0.00000086 Ry

     The total energy is the sum of the following terms:

     one-electron contribution =    -424.33451164 Ry
     hartree contribution      =     329.25249241 Ry
     xc contribution           =    -334.24314233 Ry
     ewald contribution        =    -416.20748397 Ry
     smearing contrib. (-TS)   =       0.00078361 Ry

     convergence has been achieved in  17 iterations

     Forces acting on atoms (cartesian axes, Ry/au):

     atom    1 type  1   force =     0.00018339   -0.00034381   -0.00093764
     atom    2 type  1   force =     0.00000141   -0.00007598   -0.00147949
     atom    3 type  1   force =     0.00036947    0.00062057    0.00172761
     atom    4 type  1   force =    -0.00028273    0.00023806   -0.00124946
     atom    5 type  1   force =    -0.00041515    0.00018118   -0.00148424
     atom    6 type  1   force =     0.00042437   -0.00018521    0.00153577
     atom    7 type  1   force =    -0.00046793   -0.00022762   -0.00146481
     atom    8 type  1   force =     0.00031469    0.00005599   -0.00091567
     atom    9 type  1   force =    -0.00017554    0.00001633   -0.00087960
     atom   10 type  1   force =    -0.00008717    0.00045014   -0.00147571
     atom   11 type  1   force =    -0.00030739   -0.00054569    0.00172532
     atom   12 type  1   force =    -0.00027107    0.00020759    0.00155022
     atom   13 type  2   force =     0.00012897   -0.00008324   -0.00051953
     atom   14 type  2   force =    -0.00085485    0.00013831   -0.00547705
     atom   15 type  2   force =     0.00051833   -0.00026713    0.00549207
     atom   16 type  2   force =     0.00032667   -0.00001173    0.00132566
     atom   17 type  2   force =     0.00008240    0.00012298   -0.00058253
     atom   18 type  2   force =    -0.00011173   -0.00005762    0.00039795
     atom   19 type  2   force =     0.00022087   -0.00005327   -0.00091078
     atom   20 type  2   force =    -0.00078260    0.00012949   -0.00501207
     atom   21 type  2   force =     0.00079945    0.00022215    0.00549150
     atom   22 type  2   force =     0.00017399   -0.00027515    0.00132516
     atom   23 type  2   force =     0.00011045   -0.00002859   -0.00053434
     atom   24 type  2   force =     0.00007952   -0.00003591    0.00032860
     atom   25 type  2   force =     0.00070512   -0.00004936    0.00558218
     atom   26 type  2   force =    -0.00001937    0.00001168    0.00142900
     atom   27 type  2   force =     0.00021299   -0.00010668   -0.00058646
     atom   28 type  2   force =    -0.00079755    0.00012632   -0.00539180
     atom   29 type  2   force =     0.00023120   -0.00015265   -0.00055579
     atom   30 type  2   force =    -0.00076408    0.00008157   -0.00531685
     atom   31 type  2   force =     0.00047078    0.00008624    0.00564884
     atom   32 type  2   force =     0.00017076   -0.00009733    0.00139749
     atom   33 type  2   force =    -0.00006976   -0.00021272   -0.00057931
     atom   34 type  2   force =    -0.00007995    0.00012074    0.00040206
     atom   35 type  2   force =    -0.00006734    0.00004330   -0.00063502
     atom   36 type  2   force =     0.00002938   -0.00004298    0.00062871

     Total force =     0.016677     Total SCF correction =     0.002249
     SCF correction compared to forces is large: reduce conv_thr to get better values
 
     init_run     :      3.28s CPU      3.44s WALL (       1 calls)
     electrons    :     98.90s CPU    101.90s WALL (       1 calls)
     forces       :      1.95s CPU      2.03s WALL (       1 calls)

     Called by init_run:
     wfcinit      :      2.13s CPU      2.18s WALL (       1 calls)
     potinit      :      0.26s CPU      0.27s WALL (       1 calls)
     hinit0       :      0.31s CPU      0.33s WALL (       1 calls)

     Called by electrons:
     c_bands      :     77.76s CPU     78.92s WALL (      17 calls)
     sum_band     :     15.33s CPU     16.57s WALL (      17 calls)
     v_of_rho     :      1.09s CPU      1.14s WALL (      18 calls)
     newd         :      3.66s CPU      4.24s WALL (      18 calls)
     mix_rho      :      1.13s CPU      1.14s WALL (      17 calls)

     Called by c_bands:
     init_us_2    :      2.04s CPU      2.06s WALL (     180 calls)
     cegterg      :     72.30s CPU     73.42s WALL (      85 calls)

     Called by sum_band:
     sum_band:bec :      0.12s CPU      0.12s WALL (      85 calls)
     addusdens    :      5.93s CPU      6.90s WALL (      17 calls)

     Called by *egterg:
     h_psi        :     37.17s CPU     37.99s WALL (     342 calls)
     s_psi        :      7.37s CPU      7.38s WALL (     342 calls)
     g_psi        :      0.18s CPU      0.19s WALL (     252 calls)
     cdiaghg      :     15.80s CPU     16.03s WALL (     337 calls)

     Called by h_psi:
     h_psi:pot    :     36.77s CPU     37.58s WALL (     342 calls)
     h_psi:calbec :      8.52s CPU      8.91s WALL (     342 calls)
     vloc_psi     :     20.84s CPU     21.25s WALL (     342 calls)
     add_vuspsi   :      7.39s CPU      7.41s WALL (     342 calls)

     General routines
     calbec       :     12.58s CPU     13.17s WALL (     447 calls)
     fft          :      0.87s CPU      0.94s WALL (     243 calls)
     ffts         :      0.48s CPU      0.49s WALL (     537 calls)
     fftw         :     23.44s CPU     23.90s WALL (   65454 calls)
     interpolate  :      0.10s CPU      0.10s WALL (      18 calls)
 
     Parallel routines
     fft_scatt_xy :      2.61s CPU      2.66s WALL (   66234 calls)
     fft_scatt_yz :     10.73s CPU     10.99s WALL (   66234 calls)
 
     PWSCF        :   1m44.85s CPU   1m48.19s WALL

 
   This run was terminated on:   0:14: 6  25Dec2021            

=------------------------------------------------------------------------------=
   JOB DONE.
=------------------------------------------------------------------------------=
