
     Program PWSCF v.6.4 starts on  2Sep2021 at 18:10:49 

     This program is part of the open-source Quantum ESPRESSO suite
     for quantum simulation of materials; please cite
         "P. Giannozzi et al., J. Phys.:Condens. Matter 21 395502 (2009);
         "P. Giannozzi et al., J. Phys.:Condens. Matter 29 465901 (2017);
          URL http://www.quantum-espresso.org", 
     in publications or presentations arising from this work. More details at
     http://www.quantum-espresso.org/quote

     Parallel version (MPI), running on    40 processors

     MPI processes distributed on     1 nodes
     R & G space division:  proc/nbgrp/npool/nimage =      40
     Waiting for input...
     Reading input from standard input
Warning: card    &IONS ignored
Warning: card      ION_DYNAMICS = 'BFGS' ignored
Warning: card   / ignored
Warning: card    &CELL ignored
Warning: card      CELL_DYNAMICS = 'BFGS', ignored
Warning: card    / ignored

     Current dimensions of program PWSCF are:
     Max number of different atomic species (ntypx) = 10
     Max number of k-points (npk) =  40000
     Max angular momentum in pseudopotentials (lmaxx) =  3

     Subspace diagonalization in iterative solution of the eigenvalue problem:
     one sub-group per band group will be used
     scalapack distributed-memory algorithm (size of sub-group:  4*  4 procs)

     Found symmetry operation: I + ( -0.5000  0.5000 -0.0000)
     This is a supercell, fractional translations are disabled
 
     Parallelization info
     --------------------
     sticks:   dense  smooth     PW     G-vecs:    dense   smooth      PW
     Min          92      46     12                16832     5944     853
     Max          93      47     13                16843     5955     875
     Sum        3683    1851    511               673489   237957   34651
 


     bravais-lattice index     =            0
     lattice parameter (alat)  =      12.2305  a.u.
     unit-cell volume          =    5840.7740 (a.u.)^3
     number of atoms/cell      =           36
     number of atomic types    =            2
     number of electrons       =       216.00
     number of Kohn-Sham states=          130
     kinetic-energy cutoff     =      45.0000  Ry
     charge density cutoff     =     360.0000  Ry
     convergence threshold     =      1.0E-06
     mixing beta               =       0.7000
     number of iterations used =            8  local-TF  mixing
     Exchange-correlation      = SLA PW GGX GGC ( 1  4  2  2 0 0)

     celldm(1)=  12.230453  celldm(2)=   0.000000  celldm(3)=   0.000000
     celldm(4)=   0.000000  celldm(5)=   0.000000  celldm(6)=   0.000000

     crystal axes: (cart. coord. in units of alat)
               a(1) = (   1.000000   0.000000   0.000000 )  
               a(2) = (  -0.500024   0.863799   0.000000 )  
               a(3) = (   0.766606  -0.160827   3.695984 )  

     reciprocal axes: (cart. coord. in units 2 pi/alat)
               b(1) = (  1.000000  0.578867 -0.182227 )  
               b(2) = (  0.000000  1.157677  0.050375 )  
               b(3) = (  0.000000  0.000000  0.270564 )  


     PseudoPot. # 1 for Mo read from file:
     ~/pseudo/Mo.pw91-n-van.UPF
     MD5 check sum: Not computed, couldn't open file
     Pseudo is Ultrasoft + core correction, Zval =  6.0
     Generated by new atomic code, or converted to UPF format
     Using radial grid of  965 points,  3 beta functions with: 
                l(1) =   1
                l(2) =   2
                l(3) =   2
     Q(r) pseudized with  8 coefficients,  rinner =    1.000   1.000   1.000
                                                       1.200   1.200

     PseudoPot. # 2 for S  read from file:
     ~/pseudo/S.pw91-van_ak.UPF
     MD5 check sum: Not computed, couldn't open file
     Pseudo is Ultrasoft, Zval =  6.0
     Generated by new atomic code, or converted to UPF format
     Using radial grid of  811 points,  6 beta functions with: 
                l(1) =   0
                l(2) =   0
                l(3) =   1
                l(4) =   1
                l(5) =   2
                l(6) =   2
     Q(r) pseudized with  8 coefficients,  rinner =    1.100   1.100   1.100
                                                       1.100   1.100

     atomic species   valence    mass     pseudopotential
        Mo             6.00    95.50000     Mo( 1.00)
        S              6.00    32.06500     S ( 1.00)

     No symmetry found



   Cartesian axes

     site n.     atom                  positions (alat units)
         1           Mo  tau(   1) = (   0.4234982   0.2352822   2.2871962  )
         2           Mo  tau(   2) = (   0.6734859   0.6671817   2.2871962  )
         3           Mo  tau(   3) = (   0.9234982   0.2352822   2.2871962  )
         4           Mo  tau(   4) = (   0.1734859   0.6671817   2.2871962  )
         5           Mo  tau(   5) = (   0.9220681   0.2354820   1.2325517  )
         6           Mo  tau(   6) = (   0.1720559   0.6673815   1.2325517  )
         7           Mo  tau(   7) = (   0.4220681   0.2354820   1.2325517  )
         8           Mo  tau(   8) = (   0.6720559   0.6673815   1.2325517  )
         9           Mo  tau(   9) = (  -0.3279676   0.6679369   0.1778999  )
        10           Mo  tau(  10) = (   0.4220447   0.2360375   0.1778999  )
        11           Mo  tau(  11) = (   0.1720325   0.6679369   0.1778999  )
        12           Mo  tau(  12) = (  -0.0779553   0.2360375   0.1778999  )
        13           S   tau(  13) = (   0.9386415  -0.0685726   3.6313218  )
        14           S   tau(  14) = (   1.1886293   0.3633269   3.6313218  )
        15           S   tau(  15) = (   1.4386415  -0.0685726   3.6313218  )
        16           S   tau(  16) = (   0.6886293   0.3633269   3.6313218  )
        17           S   tau(  17) = (   0.6735157   0.0914981   2.5297586  )
        18           S   tau(  18) = (   0.9235035   0.5233975   2.5297586  )
        19           S   tau(  19) = (   1.1735157   0.0914981   2.5297586  )
        20           S   tau(  20) = (   0.4235035   0.5233975   2.5297586  )
        21           S   tau(  21) = (   0.6734895   0.0914933   2.0425089  )
        22           S   tau(  22) = (   0.9234773   0.5233928   2.0425089  )
        23           S   tau(  23) = (   1.1734895   0.0914933   2.0425089  )
        24           S   tau(  24) = (   0.4234773   0.5233928   2.0425089  )
        25           S   tau(  25) = (   0.6720842   0.0916815   1.4767139  )
        26           S   tau(  26) = (  -0.0779280   0.5235809   1.4767140  )
        27           S   tau(  27) = (   0.1720842   0.0916815   1.4767139  )
        28           S   tau(  28) = (   0.4220720   0.5235809   1.4767139  )
        29           S   tau(  29) = (   0.6720572   0.0916969   0.9883894  )
        30           S   tau(  30) = (  -0.0779550   0.5235963   0.9883894  )
        31           S   tau(  31) = (   0.1720572   0.0916969   0.9883894  )
        32           S   tau(  32) = (   0.4220450   0.5235963   0.9883894  )
        33           S   tau(  33) = (   0.1720375   0.0922316   0.4225873  )
        34           S   tau(  34) = (   0.4220253   0.5241310   0.4225873  )
        35           S   tau(  35) = (   0.6720375   0.0922316   0.4225873  )
        36           S   tau(  36) = (  -0.0779747   0.5241310   0.4225873  )

     number of k points=     5  Marzari-Vanderbilt smearing, width (Ry)=  0.0200
                       cart. coord. in units 2pi/alat
        k(    1) = (   0.0000000   0.0000000   0.0000000), wk =   0.2222222
        k(    2) = (   0.0000000   0.3858923   0.0167918), wk =   0.4444444
        k(    3) = (   0.3333333   0.1929556  -0.0607423), wk =   0.4444444
        k(    4) = (   0.3333333   0.5788479  -0.0439506), wk =   0.4444444
        k(    5) = (   0.3333333  -0.1929367  -0.0775341), wk =   0.4444444

     Dense  grid:   673489 G-vectors     FFT dimensions: (  75,  75, 288)

     Smooth grid:   237957 G-vectors     FFT dimensions: (  54,  54, 200)

     Estimated max dynamical RAM per process >     107.26 MB

     Estimated total dynamical RAM >       4.19 GB

     Initial potential from superposition of free atoms

     starting charge  215.98107, renormalised to  216.00000
     Starting wfcs are  204 randomized atomic wfcs

     total cpu time spent up to now is        4.9 secs

     Self-consistent Calculation

     iteration #  1     ecut=    45.00 Ry     beta= 0.70
     Davidson diagonalization with overlap
     ethr =  1.00E-02,  avg # of iterations =  2.0

     total cpu time spent up to now is       11.6 secs

     total energy              =    -844.19049201 Ry
     Harris-Foulkes estimate   =    -846.87065740 Ry
     estimated scf accuracy    <       6.86166657 Ry

     iteration #  2     ecut=    45.00 Ry     beta= 0.70
     Davidson diagonalization with overlap
     ethr =  3.18E-03,  avg # of iterations =  2.8

     total cpu time spent up to now is       17.7 secs

     total energy              =    -845.45626536 Ry
     Harris-Foulkes estimate   =    -845.61837127 Ry
     estimated scf accuracy    <       0.83028060 Ry

     iteration #  3     ecut=    45.00 Ry     beta= 0.70
     Davidson diagonalization with overlap
     ethr =  3.84E-04,  avg # of iterations =  2.0

     total cpu time spent up to now is       23.2 secs

     total energy              =    -845.46090079 Ry
     Harris-Foulkes estimate   =    -845.53877662 Ry
     estimated scf accuracy    <       0.19642777 Ry

     iteration #  4     ecut=    45.00 Ry     beta= 0.70
     Davidson diagonalization with overlap
     ethr =  9.09E-05,  avg # of iterations =  3.6

     total cpu time spent up to now is       30.7 secs

     total energy              =    -845.50120384 Ry
     Harris-Foulkes estimate   =    -845.55066463 Ry
     estimated scf accuracy    <       0.16188297 Ry

     iteration #  5     ecut=    45.00 Ry     beta= 0.70
     Davidson diagonalization with overlap
     ethr =  7.49E-05,  avg # of iterations =  2.6

     total cpu time spent up to now is       36.6 secs

     total energy              =    -845.52582825 Ry
     Harris-Foulkes estimate   =    -845.52671685 Ry
     estimated scf accuracy    <       0.00580765 Ry

     iteration #  6     ecut=    45.00 Ry     beta= 0.70
     Davidson diagonalization with overlap
     ethr =  2.69E-06,  avg # of iterations = 10.2

     total cpu time spent up to now is       49.6 secs

     total energy              =    -845.52644190 Ry
     Harris-Foulkes estimate   =    -845.52837562 Ry
     estimated scf accuracy    <       0.01029113 Ry

     iteration #  7     ecut=    45.00 Ry     beta= 0.70
     Davidson diagonalization with overlap
     ethr =  2.69E-06,  avg # of iterations =  1.8

     total cpu time spent up to now is       54.9 secs

     total energy              =    -845.52628218 Ry
     Harris-Foulkes estimate   =    -845.52682193 Ry
     estimated scf accuracy    <       0.00322179 Ry

     iteration #  8     ecut=    45.00 Ry     beta= 0.70
     Davidson diagonalization with overlap
     ethr =  1.49E-06,  avg # of iterations =  3.0

     total cpu time spent up to now is       60.9 secs

     total energy              =    -845.52649730 Ry
     Harris-Foulkes estimate   =    -845.52658587 Ry
     estimated scf accuracy    <       0.00044840 Ry

     iteration #  9     ecut=    45.00 Ry     beta= 0.70
     Davidson diagonalization with overlap
     ethr =  2.08E-07,  avg # of iterations =  4.0

     total cpu time spent up to now is       68.8 secs

     total energy              =    -845.52667629 Ry
     Harris-Foulkes estimate   =    -845.52670397 Ry
     estimated scf accuracy    <       0.00040494 Ry

     iteration # 10     ecut=    45.00 Ry     beta= 0.70
     Davidson diagonalization with overlap
     ethr =  1.87E-07,  avg # of iterations =  1.2

     negative rho (up, down):  1.191E-08 0.000E+00

     total cpu time spent up to now is       73.9 secs

     total energy              =    -845.52660089 Ry
     Harris-Foulkes estimate   =    -845.52668240 Ry
     estimated scf accuracy    <       0.00030552 Ry

     iteration # 11     ecut=    45.00 Ry     beta= 0.70
     Davidson diagonalization with overlap
     ethr =  1.41E-07,  avg # of iterations =  2.8

     total cpu time spent up to now is       80.0 secs

     total energy              =    -845.52664270 Ry
     Harris-Foulkes estimate   =    -845.52664812 Ry
     estimated scf accuracy    <       0.00001787 Ry

     iteration # 12     ecut=    45.00 Ry     beta= 0.70
     Davidson diagonalization with overlap
     ethr =  8.27E-09,  avg # of iterations =  3.2

     total cpu time spent up to now is       86.9 secs

     total energy              =    -845.52664738 Ry
     Harris-Foulkes estimate   =    -845.52664740 Ry
     estimated scf accuracy    <       0.00000741 Ry

     iteration # 13     ecut=    45.00 Ry     beta= 0.70
     Davidson diagonalization with overlap
     ethr =  3.43E-09,  avg # of iterations =  1.2

     total cpu time spent up to now is       92.0 secs

     total energy              =    -845.52664680 Ry
     Harris-Foulkes estimate   =    -845.52664766 Ry
     estimated scf accuracy    <       0.00000599 Ry

     iteration # 14     ecut=    45.00 Ry     beta= 0.70
     Davidson diagonalization with overlap
     ethr =  2.77E-09,  avg # of iterations =  1.6

     total cpu time spent up to now is       97.2 secs

     total energy              =    -845.52664699 Ry
     Harris-Foulkes estimate   =    -845.52664715 Ry
     estimated scf accuracy    <       0.00000226 Ry

     iteration # 15     ecut=    45.00 Ry     beta= 0.70
     Davidson diagonalization with overlap
     ethr =  1.05E-09,  avg # of iterations =  3.4

     total cpu time spent up to now is      103.4 secs

     End of self-consistent calculation

          k = 0.0000 0.0000 0.0000 ( 29709 PWs)   bands (ev):

    -9.4144  -9.3669  -9.3486  -8.2489  -8.1735  -8.1421  -7.7231  -7.7230
    -7.7151  -7.6806  -7.6805  -7.6726  -7.6644  -7.6644  -7.6566  -7.4459
    -7.4458  -7.4356  -7.3916  -7.3915  -7.3813  -7.3762  -7.3761  -7.3659
    -1.0499  -1.0498  -1.0456  -1.0387  -0.9951  -0.9951  -0.9909  -0.9732
    -0.9731  -0.9689  -0.8590  -0.7053  -0.1355  -0.1309  -0.1309  -0.0576
    -0.0529  -0.0527  -0.0140  -0.0090  -0.0089   0.4736   0.4738   0.4756
     0.6082   0.6085   0.6103   0.7099   0.7100   0.7116   1.4367   1.4629
     1.4632   1.4651   1.4670   1.4913   1.4917   1.4932   1.4936   1.9555
     1.9737   1.9741   1.9805   1.9987   1.9990   2.4661   2.4909   2.4909
     2.5010   2.7449   2.7455   2.7550   2.8936   2.9640   2.9642   2.9738
     3.0506   3.0687   3.0796   3.0805   3.0979   3.0987   3.3684   3.5472
     3.5700   3.5703   3.5881   3.5977   3.6107   3.6110   3.6202   3.6205
     3.8218   3.8222   3.8353   3.9581   3.9582   3.9711   4.0392   4.0395
     4.0518   4.3714   4.6753   4.8662   6.5155   6.5159   6.5175   6.5506
     6.5508   6.5516   6.5518   6.5524   6.5534   6.9980   6.9982   7.0033
     7.0644   7.0647   7.0705   7.0880   7.0884   7.0946   7.1807   7.1903
     7.2266   7.2371

          k = 0.0000 0.3859 0.0168 ( 29768 PWs)   bands (ev):

    -9.0571  -9.0096  -8.9915  -8.2246  -8.1790  -8.1618  -8.0732  -8.0023
    -7.9742  -7.7447  -7.7447  -7.7017  -7.7016  -7.6855  -7.6854  -7.6715
    -7.6110  -7.5907  -7.4344  -7.4343  -7.3794  -7.3793  -7.3634  -7.3633
    -0.6429  -0.6020  -0.6019  -0.5508  -0.5480  -0.5480  -0.5249  -0.5248
    -0.4814  -0.4682  -0.4411  -0.3163  -0.1724  -0.1723  -0.1225  -0.1224
    -0.1062  -0.1061   0.4520   0.5131   0.6059   0.6432   0.6633   0.6634
     0.7631   0.8035   0.8036   0.8596   0.9253   0.9254   1.2528   1.2799
     1.2908   1.3750   1.3752   1.4740   1.4741   1.5213   1.5215   1.6365
     1.7492   1.7775   1.7793   1.8158   1.9280   2.2067   2.2068   2.2696
     2.2697   2.3112   2.3114   2.3484   2.3663   2.3671   2.5247   2.5562
     2.5575   2.6773   2.6773   2.7343   2.8957   2.8959   2.9911   3.0620
     3.0621   3.1615   3.1919   3.1965   3.2284   3.2610   3.4918   3.5744
     3.6692   3.7041   3.7818   4.0323   4.0325   4.0843   4.0844   4.1003
     4.1005   4.1695   4.3463   4.4253   6.5042   6.5044   6.5481   6.5950
     6.5959   6.5963   6.5965   6.5973   6.6016   6.6388   6.6390   6.7392
     6.7673   6.9053   6.9156   6.9670   6.9758   6.9939   6.9941   7.0262
     7.0390   7.0792

          k = 0.3333 0.1930-0.0607 ( 29755 PWs)   bands (ev):

    -9.0588  -9.0113  -8.9931  -8.2301  -8.1844  -8.1673  -8.0751  -8.0041
    -7.9761  -7.7421  -7.7381  -7.6990  -7.6951  -7.6829  -7.6790  -7.6783
    -7.6178  -7.5975  -7.4319  -7.4267  -7.3770  -7.3717  -7.3610  -7.3558
    -0.6440  -0.6076  -0.6046  -0.5538  -0.5519  -0.5507  -0.5307  -0.5275
    -0.4829  -0.4697  -0.4426  -0.3172  -0.1796  -0.1762  -0.1299  -0.1262
    -0.1138  -0.1099   0.4496   0.5083   0.6039   0.6371   0.6633   0.6673
     0.7544   0.8035   0.8073   0.8510   0.9256   0.9294   1.2406   1.2676
     1.2784   1.3631   1.3720   1.4614   1.4711   1.5080   1.5184   1.6292
     1.7732   1.8015   1.8033   1.8085   1.9189   2.2035   2.2149   2.2663
     2.2778   2.3072   2.3193   2.3658   2.3836   2.3845   2.5429   2.5743
     2.5756   2.6813   2.6828   2.7278   2.8998   2.9021   2.9860   3.0657
     3.0686   3.1797   3.2099   3.2145   3.2215   3.2541   3.4878   3.5658
     3.6602   3.6959   3.7753   4.0229   4.0275   4.0745   4.0793   4.0904
     4.0954   4.1659   4.3403   4.4202   6.5066   6.5085   6.5570   6.5857
     6.5953   6.6017   6.6023   6.6044   6.6113   6.6483   6.6488   6.7272
     6.7587   6.9017   6.9152   6.9699   6.9841   7.0091   7.0094   7.0433
     7.0560   7.0906

          k = 0.3333 0.5788-0.0440 ( 29832 PWs)   bands (ev):

    -8.4605  -8.4565  -8.4564  -8.4139  -8.4100  -8.4099  -8.3964  -8.3924
    -8.3924  -7.7837  -7.7795  -7.7794  -7.7202  -7.7160  -7.7160  -7.6978
    -7.6936  -7.6935  -7.4868  -7.4460  -7.4303  -7.2845  -7.2320  -7.2182
    -0.6504  -0.6138  -0.6056  -0.3011  -0.3010  -0.3005  -0.1934  -0.1932
    -0.1925  -0.1158  -0.1157  -0.1141   0.1041   0.1583   0.1757   0.6026
     0.6526   0.6692   0.6996   0.6997   0.7003   0.7938   0.7939   0.7941
     0.8687   0.8978   0.8980   0.8981   1.0014   1.0015   1.0063   1.0322
     1.0651   1.0654   1.0711   1.0839   1.0839   1.0899   1.1840   1.3954
     1.3956   1.3993   1.5147   1.5150   1.5190   1.5854   1.5855   1.5893
     1.6768   1.7569   1.7923   2.2374   2.4811   2.6013   2.6054   2.6054
     2.6360   2.6399   2.6399   2.6420   2.6457   2.6458   2.6552   3.2957
     3.2982   3.2985   3.4950   3.4957   3.4964   3.6954   3.6979   3.6987
     3.7560   3.7565   3.7608   3.8229   3.8230   3.8250   3.8250   3.8267
     3.8299   4.4812   4.5239   4.5335   6.0741   6.1064   6.1066   6.2379
     6.2392   6.2426   6.4065   6.4091   6.4094   6.5350   6.5370   6.5408
     6.7671   6.7766   6.7767   6.8376   6.8449   6.8456   6.9442   6.9471
     6.9509   7.0127

          k = 0.3333-0.1929-0.0775 ( 29763 PWs)   bands (ev):

    -9.0588  -9.0113  -8.9931  -8.2302  -8.1845  -8.1673  -8.0751  -8.0042
    -7.9762  -7.7420  -7.7381  -7.6990  -7.6951  -7.6828  -7.6789  -7.6784
    -7.6179  -7.5977  -7.4318  -7.4266  -7.3768  -7.3717  -7.3609  -7.3557
    -0.6440  -0.6077  -0.6047  -0.5539  -0.5519  -0.5507  -0.5308  -0.5276
    -0.4829  -0.4699  -0.4426  -0.3171  -0.1797  -0.1763  -0.1300  -0.1264
    -0.1138  -0.1101   0.4495   0.5085   0.6037   0.6368   0.6633   0.6673
     0.7546   0.8035   0.8074   0.8508   0.9256   0.9293   1.2404   1.2675
     1.2783   1.3632   1.3719   1.4613   1.4710   1.5081   1.5181   1.6289
     1.7735   1.8019   1.8037   1.8086   1.9186   2.2036   2.2149   2.2664
     2.2777   2.3072   2.3193   2.3660   2.3838   2.3847   2.5431   2.5747
     2.5760   2.6815   2.6830   2.7276   2.8999   2.9019   2.9859   3.0658
     3.0687   3.1799   3.2102   3.2147   3.2214   3.2538   3.4884   3.5656
     3.6601   3.6956   3.7744   4.0229   4.0273   4.0745   4.0793   4.0903
     4.0953   4.1666   4.3397   4.4202   6.5067   6.5082   6.5572   6.5862
     6.5952   6.6018   6.6033   6.6045   6.6114   6.6479   6.6489   6.7256
     6.7588   6.9043   6.9150   6.9675   6.9843   7.0092   7.0097   7.0436
     7.0562   7.0907

     the Fermi energy is     4.7280 ev

!    total energy              =    -845.52664657 Ry
     Harris-Foulkes estimate   =    -845.52664730 Ry
     estimated scf accuracy    <       0.00000085 Ry

     The total energy is the sum of the following terms:

     one-electron contribution =   -1024.03936489 Ry
     hartree contribution      =     621.43466666 Ry
     xc contribution           =    -333.94430875 Ry
     ewald contribution        =    -108.99513394 Ry
     smearing contrib. (-TS)   =       0.01749435 Ry

     convergence has been achieved in  15 iterations

     Forces acting on atoms (cartesian axes, Ry/au):

     atom    1 type  1   force =    -0.00048995    0.00034758   -0.00870794
     atom    2 type  1   force =     0.00007448    0.00033883   -0.00866508
     atom    3 type  1   force =     0.00048263    0.00043045   -0.00875942
     atom    4 type  1   force =    -0.00007087   -0.00024551   -0.00857525
     atom    5 type  1   force =     0.00001266    0.00026983   -0.00009452
     atom    6 type  1   force =     0.00019490   -0.00002227   -0.00010068
     atom    7 type  1   force =    -0.00003324    0.00049494   -0.00007724
     atom    8 type  1   force =    -0.00021162    0.00000987   -0.00009489
     atom    9 type  1   force =     0.00012286   -0.00027549    0.00859158
     atom   10 type  1   force =     0.00026457    0.00037519    0.00874518
     atom   11 type  1   force =    -0.00024936    0.00007902    0.00862829
     atom   12 type  1   force =    -0.00034490    0.00056056    0.00871368
     atom   13 type  2   force =     0.00004558   -0.00008024   -0.00181013
     atom   14 type  2   force =     0.00016255   -0.00019236   -0.00202612
     atom   15 type  2   force =    -0.00004150    0.00004983   -0.00162787
     atom   16 type  2   force =    -0.00017056   -0.00005382   -0.00192301
     atom   17 type  2   force =    -0.00007404   -0.00007339    0.00189650
     atom   18 type  2   force =    -0.00001846   -0.00002336    0.00181601
     atom   19 type  2   force =    -0.00003768   -0.00010114    0.00174615
     atom   20 type  2   force =    -0.00014145   -0.00009887    0.00191894
     atom   21 type  2   force =     0.00003870   -0.00000030    0.00936036
     atom   22 type  2   force =     0.00002878   -0.00034136    0.00923910
     atom   23 type  2   force =     0.00006678   -0.00013337    0.00942738
     atom   24 type  2   force =     0.00007220   -0.00020102    0.00939964
     atom   25 type  2   force =    -0.00005713   -0.00016071   -0.00783032
     atom   26 type  2   force =     0.00008943   -0.00002163   -0.00788536
     atom   27 type  2   force =     0.00002649   -0.00011615   -0.00786917
     atom   28 type  2   force =    -0.00010962   -0.00008335   -0.00798664
     atom   29 type  2   force =     0.00007907   -0.00011531    0.00800724
     atom   30 type  2   force =     0.00019603   -0.00017547    0.00773066
     atom   31 type  2   force =     0.00002307   -0.00000165    0.00815171
     atom   32 type  2   force =    -0.00008696   -0.00011303    0.00786949
     atom   33 type  2   force =     0.00003537   -0.00025709   -0.00922498
     atom   34 type  2   force =    -0.00002651    0.00020243   -0.00949729
     atom   35 type  2   force =     0.00015499   -0.00027514   -0.00920652
     atom   36 type  2   force =    -0.00000729    0.00000350   -0.00927948

     Total force =     0.042778     Total SCF correction =     0.001998
 
     init_run     :      3.99s CPU      4.13s WALL (       1 calls)
     electrons    :     95.83s CPU     98.52s WALL (       1 calls)
     forces       :      2.43s CPU      2.50s WALL (       1 calls)

     Called by init_run:
     wfcinit      :      2.26s CPU      2.31s WALL (       1 calls)
     potinit      :      0.45s CPU      0.46s WALL (       1 calls)
     hinit0       :      0.60s CPU      0.61s WALL (       1 calls)

     Called by electrons:
     c_bands      :     74.22s CPU     75.30s WALL (      15 calls)
     sum_band     :     15.14s CPU     16.28s WALL (      15 calls)
     v_of_rho     :      1.16s CPU      1.21s WALL (      16 calls)
     newd         :      3.94s CPU      4.36s WALL (      16 calls)
     mix_rho      :      1.51s CPU      1.53s WALL (      15 calls)

     Called by c_bands:
     init_us_2    :      1.87s CPU      1.89s WALL (     160 calls)
     cegterg      :     68.87s CPU     69.92s WALL (      75 calls)

     Called by sum_band:
     sum_band:bec :      0.15s CPU      0.15s WALL (      75 calls)
     addusdens    :      6.27s CPU      7.22s WALL (      15 calls)

     Called by *egterg:
     h_psi        :     35.77s CPU     36.47s WALL (     307 calls)
     s_psi        :      7.28s CPU      7.29s WALL (     307 calls)
     g_psi        :      0.20s CPU      0.20s WALL (     227 calls)
     cdiaghg      :     14.17s CPU     14.45s WALL (     302 calls)

     Called by h_psi:
     h_psi:pot    :     35.34s CPU     36.02s WALL (     307 calls)
     h_psi:calbec :      8.04s CPU      8.33s WALL (     307 calls)
     vloc_psi     :     19.92s CPU     20.29s WALL (     307 calls)
     add_vuspsi   :      7.38s CPU      7.39s WALL (     307 calls)

     General routines
     calbec       :     11.90s CPU     12.32s WALL (     402 calls)
     fft          :      0.95s CPU      1.01s WALL (     217 calls)
     ffts         :      0.62s CPU      0.62s WALL (     667 calls)
     fftw         :     22.10s CPU     22.50s WALL (   58926 calls)
     interpolate  :      0.10s CPU      0.11s WALL (      16 calls)
 
     Parallel routines
     fft_scatt_xy :      2.55s CPU      2.60s WALL (   59810 calls)
     fft_scatt_yz :     10.46s CPU     10.71s WALL (   59810 calls)
 
     PWSCF        :   1m42.94s CPU   1m45.96s WALL

 
   This run was terminated on:  18:12:35   2Sep2021            

=------------------------------------------------------------------------------=
   JOB DONE.
=------------------------------------------------------------------------------=
