
     Program PWSCF v.6.4 starts on  3Dec2021 at 14:46:19 

     This program is part of the open-source Quantum ESPRESSO suite
     for quantum simulation of materials; please cite
         "P. Giannozzi et al., J. Phys.:Condens. Matter 21 395502 (2009);
         "P. Giannozzi et al., J. Phys.:Condens. Matter 29 465901 (2017);
          URL http://www.quantum-espresso.org", 
     in publications or presentations arising from this work. More details at
     http://www.quantum-espresso.org/quote

     Parallel version (MPI), running on    40 processors

     MPI processes distributed on     1 nodes
     R & G space division:  proc/nbgrp/npool/nimage =      40
     Waiting for input...
     Reading input from standard input
Warning: card    &IONS ignored
Warning: card      ION_DYNAMICS = 'BFGS' ignored
Warning: card   / ignored
Warning: card    &CELL ignored
Warning: card      CELL_DYNAMICS = 'BFGS', ignored
Warning: card    / ignored

     Current dimensions of program PWSCF are:
     Max number of different atomic species (ntypx) = 10
     Max number of k-points (npk) =  40000
     Max angular momentum in pseudopotentials (lmaxx) =  3

     Subspace diagonalization in iterative solution of the eigenvalue problem:
     one sub-group per band group will be used
     scalapack distributed-memory algorithm (size of sub-group:  4*  4 procs)

 
     Parallelization info
     --------------------
     sticks:   dense  smooth     PW     G-vecs:    dense   smooth      PW
     Min         211     105     28                16457     5817     814
     Max         212     106     29                16462     5822     816
     Sum        8459    4225   1143               658365   232769   32583
 


     bravais-lattice index     =            0
     lattice parameter (alat)  =      17.3528  a.u.
     unit-cell volume          =    5707.7637 (a.u.)^3
     number of atoms/cell      =           33
     number of atomic types    =            2
     number of electrons       =       198.00
     number of Kohn-Sham states=          119
     kinetic-energy cutoff     =      45.0000  Ry
     charge density cutoff     =     360.0000  Ry
     convergence threshold     =      1.0E-06
     mixing beta               =       0.7000
     number of iterations used =            8  local-TF  mixing
     Exchange-correlation      = SLA PW GGX GGC ( 1  4  2  2 0 0)

     celldm(1)=  17.352843  celldm(2)=   0.000000  celldm(3)=   0.000000
     celldm(4)=   0.000000  celldm(5)=   0.000000  celldm(6)=   0.000000

     crystal axes: (cart. coord. in units of alat)
               a(1) = (   1.000000   0.000000   0.000000 )  
               a(2) = (   0.140802   0.980124   0.000000 )  
               a(3) = (   0.109156   0.346178   1.114482 )  

     reciprocal axes: (cart. coord. in units 2 pi/alat)
               b(1) = (  1.000000 -0.143657 -0.053321 )  
               b(2) = (  0.000000  1.020279 -0.316916 )  
               b(3) = (  0.000000  0.000000  0.897278 )  


     PseudoPot. # 1 for Mo read from file:
     ~/pseudo/Mo.pw91-n-van.UPF
     MD5 check sum: Not computed, couldn't open file
     Pseudo is Ultrasoft + core correction, Zval =  6.0
     Generated by new atomic code, or converted to UPF format
     Using radial grid of  965 points,  3 beta functions with: 
                l(1) =   1
                l(2) =   2
                l(3) =   2
     Q(r) pseudized with  8 coefficients,  rinner =    1.000   1.000   1.000
                                                       1.200   1.200

     PseudoPot. # 2 for S  read from file:
     ~/pseudo/S.pw91-van_ak.UPF
     MD5 check sum: Not computed, couldn't open file
     Pseudo is Ultrasoft, Zval =  6.0
     Generated by new atomic code, or converted to UPF format
     Using radial grid of  811 points,  6 beta functions with: 
                l(1) =   0
                l(2) =   0
                l(3) =   1
                l(4) =   1
                l(5) =   2
                l(6) =   2
     Q(r) pseudized with  8 coefficients,  rinner =    1.100   1.100   1.100
                                                       1.100   1.100

     atomic species   valence    mass     pseudopotential
        Mo             6.00    95.50000     Mo( 1.00)
        S              6.00    32.06500     S ( 1.00)

     No symmetry found



   Cartesian axes

     site n.     atom                  positions (alat units)
         1           Mo  tau(   1) = (   0.8190434   0.9524332   0.3521853  )
         2           Mo  tau(   2) = (   1.0596332   1.1070983   0.9019002  )
         3           Mo  tau(   3) = (   1.1458636   1.0658383   0.6041603  )
         4           Mo  tau(   4) = (   0.6459494   1.0648307   0.6075287  )
         5           Mo  tau(   5) = (   1.0016933   0.7130674   0.2197105  )
         6           Mo  tau(   6) = (   0.2614092   0.2417315   0.4704302  )
         7           Mo  tau(   7) = (   0.3771643   1.0933930   0.7808905  )
         8           Mo  tau(   8) = (   0.7102151   1.1610513   0.8892787  )
         9           Mo  tau(   9) = (   0.2540263   0.9712712   1.0923920  )
        10           Mo  tau(  10) = (   0.7857481   0.8776472   0.0505608  )
        11           Mo  tau(  11) = (   0.1504136   0.4264196   0.2418895  )
        12           S   tau(  12) = (   0.5110500   1.0065395   0.9941209  )
        13           S   tau(  13) = (   0.7339107   0.8280245   0.5710066  )
        14           S   tau(  14) = (   1.0553250   0.2982779   0.7472041  )
        15           S   tau(  15) = (   0.8598770   0.9957773   1.0280046  )
        16           S   tau(  16) = (   1.1862521   0.8912409   0.8416621  )
        17           S   tau(  17) = (   0.9917117   0.2663140   0.4028596  )
        18           S   tau(  18) = (   0.3519211   0.2516230   0.1781308  )
        19           S   tau(  19) = (   0.5230810   0.2106940   0.3933834  )
        20           S   tau(  20) = (   1.0295051   0.5796432   0.4488375  )
        21           S   tau(  21) = (   0.2630559   0.6667719   0.2144768  )
        22           S   tau(  22) = (   0.9478537   0.4882159   0.0980953  )
        23           S   tau(  23) = (   0.7367339   0.7248671   0.2516201  )
        24           S   tau(  24) = (   0.2452184   0.5086413   0.4904229  )
        25           S   tau(  25) = (   1.0642646   0.9263394   0.3889341  )
        26           S   tau(  26) = (   0.1284663   0.1404834   0.2419316  )
        27           S   tau(  27) = (   0.3916768   0.9716258   0.5469864  )
        28           S   tau(  28) = (   0.4016720   0.3056010   0.7064603  )
        29           S   tau(  29) = (   1.0470719   0.8705597   0.0128271  )
        30           S   tau(  30) = (   0.8923809   1.1428470   0.6780655  )
        31           S   tau(  31) = (   0.5675732   0.3777987   1.0413418  )
        32           S   tau(  32) = (   0.7068651   0.1262347   0.1487315  )
        33           S   tau(  33) = (   0.3763167   0.7146313   1.1089175  )

     number of k points=     8  Marzari-Vanderbilt smearing, width (Ry)=  0.0200
                       cart. coord. in units 2pi/alat
        k(    1) = (   0.0000000   0.0000000   0.0000000), wk =   0.2500000
        k(    2) = (   0.0000000   0.0000000  -0.4486391), wk =   0.2500000
        k(    3) = (   0.0000000  -0.5101394   0.1584582), wk =   0.2500000
        k(    4) = (   0.0000000  -0.5101394  -0.2901808), wk =   0.2500000
        k(    5) = (  -0.5000000   0.0718286   0.0266604), wk =   0.2500000
        k(    6) = (  -0.5000000   0.0718286  -0.4219786), wk =   0.2500000
        k(    7) = (  -0.5000000  -0.4383108   0.1851187), wk =   0.2500000
        k(    8) = (  -0.5000000  -0.4383108  -0.2635204), wk =   0.2500000

     Dense  grid:   658365 G-vectors     FFT dimensions: ( 108, 108, 125)

     Smooth grid:   232769 G-vectors     FFT dimensions: (  75,  75,  90)

     Estimated max dynamical RAM per process >     108.07 MB

     Estimated total dynamical RAM >       4.22 GB

     Initial potential from superposition of free atoms

     starting charge  197.98265, renormalised to  198.00000
     Starting wfcs are  187 randomized atomic wfcs

     total cpu time spent up to now is        6.0 secs

     Self-consistent Calculation

     iteration #  1     ecut=    45.00 Ry     beta= 0.70
     Davidson diagonalization with overlap
     ethr =  1.00E-02,  avg # of iterations =  2.0

     total cpu time spent up to now is       15.4 secs

     total energy              =    -772.72745203 Ry
     Harris-Foulkes estimate   =    -774.78156861 Ry
     estimated scf accuracy    <       5.42404192 Ry

     iteration #  2     ecut=    45.00 Ry     beta= 0.70
     Davidson diagonalization with overlap
     ethr =  2.74E-03,  avg # of iterations =  2.0

     total cpu time spent up to now is       24.0 secs

     total energy              =    -773.55559411 Ry
     Harris-Foulkes estimate   =    -773.91951984 Ry
     estimated scf accuracy    <       1.76279093 Ry

     iteration #  3     ecut=    45.00 Ry     beta= 0.70
     Davidson diagonalization with overlap
     ethr =  8.90E-04,  avg # of iterations =  2.0

     total cpu time spent up to now is       31.4 secs

     total energy              =    -773.71824200 Ry
     Harris-Foulkes estimate   =    -773.78467415 Ry
     estimated scf accuracy    <       0.44513738 Ry

     iteration #  4     ecut=    45.00 Ry     beta= 0.70
     Davidson diagonalization with overlap
     ethr =  2.25E-04,  avg # of iterations =  1.6

     total cpu time spent up to now is       38.6 secs

     total energy              =    -773.73052439 Ry
     Harris-Foulkes estimate   =    -773.75700643 Ry
     estimated scf accuracy    <       0.10260166 Ry

     iteration #  5     ecut=    45.00 Ry     beta= 0.70
     Davidson diagonalization with overlap
     ethr =  5.18E-05,  avg # of iterations =  6.2

     total cpu time spent up to now is       50.2 secs

     total energy              =    -773.74661969 Ry
     Harris-Foulkes estimate   =    -773.75189480 Ry
     estimated scf accuracy    <       0.03270646 Ry

     iteration #  6     ecut=    45.00 Ry     beta= 0.70
     Davidson diagonalization with overlap
     ethr =  1.65E-05,  avg # of iterations =  7.4

     total cpu time spent up to now is       61.9 secs

     total energy              =    -773.74844914 Ry
     Harris-Foulkes estimate   =    -773.74966029 Ry
     estimated scf accuracy    <       0.00505995 Ry

     iteration #  7     ecut=    45.00 Ry     beta= 0.70
     Davidson diagonalization with overlap
     ethr =  2.56E-06,  avg # of iterations =  7.6

     total cpu time spent up to now is       74.2 secs

     total energy              =    -773.74882445 Ry
     Harris-Foulkes estimate   =    -773.74940752 Ry
     estimated scf accuracy    <       0.00335092 Ry

     iteration #  8     ecut=    45.00 Ry     beta= 0.70
     Davidson diagonalization with overlap
     ethr =  1.69E-06,  avg # of iterations =  1.0

     total cpu time spent up to now is       81.1 secs

     total energy              =    -773.74880249 Ry
     Harris-Foulkes estimate   =    -773.74908755 Ry
     estimated scf accuracy    <       0.00122978 Ry

     iteration #  9     ecut=    45.00 Ry     beta= 0.70
     Davidson diagonalization with overlap
     ethr =  6.21E-07,  avg # of iterations =  2.6

     total cpu time spent up to now is       89.0 secs

     total energy              =    -773.74887575 Ry
     Harris-Foulkes estimate   =    -773.74892803 Ry
     estimated scf accuracy    <       0.00030300 Ry

     iteration # 10     ecut=    45.00 Ry     beta= 0.70
     Davidson diagonalization with overlap
     ethr =  1.53E-07,  avg # of iterations =  2.9

     total cpu time spent up to now is       97.1 secs

     total energy              =    -773.74888092 Ry
     Harris-Foulkes estimate   =    -773.74890755 Ry
     estimated scf accuracy    <       0.00009331 Ry

     iteration # 11     ecut=    45.00 Ry     beta= 0.70
     Davidson diagonalization with overlap
     ethr =  4.71E-08,  avg # of iterations =  3.2

     total cpu time spent up to now is      105.8 secs

     total energy              =    -773.74889232 Ry
     Harris-Foulkes estimate   =    -773.74889809 Ry
     estimated scf accuracy    <       0.00002210 Ry

     iteration # 12     ecut=    45.00 Ry     beta= 0.70
     Davidson diagonalization with overlap
     ethr =  1.12E-08,  avg # of iterations =  2.9

     total cpu time spent up to now is      114.0 secs

     total energy              =    -773.74889389 Ry
     Harris-Foulkes estimate   =    -773.74889582 Ry
     estimated scf accuracy    <       0.00000750 Ry

     iteration # 13     ecut=    45.00 Ry     beta= 0.70
     Davidson diagonalization with overlap
     ethr =  3.79E-09,  avg # of iterations =  2.2

     total cpu time spent up to now is      121.7 secs

     total energy              =    -773.74889412 Ry
     Harris-Foulkes estimate   =    -773.74889479 Ry
     estimated scf accuracy    <       0.00000167 Ry

     iteration # 14     ecut=    45.00 Ry     beta= 0.70
     Davidson diagonalization with overlap
     ethr =  8.45E-10,  avg # of iterations =  3.8

     total cpu time spent up to now is      131.7 secs

     End of self-consistent calculation

          k = 0.0000 0.0000 0.0000 ( 29123 PWs)   bands (ev):

   -11.3520 -10.7441 -10.1857  -9.4346  -9.1917  -8.9438  -8.8558  -8.7935
    -8.6205  -8.5204  -8.4983  -8.4237  -8.3061  -8.2566  -8.1962  -8.0449
    -7.9821  -7.8022  -7.6871  -7.4277  -6.9856  -6.4432  -1.9667  -1.9074
    -1.5215  -1.4430  -1.4101  -1.2700  -1.1859  -1.0253  -0.9775  -0.8757
    -0.8329  -0.7430  -0.6000  -0.5376  -0.4396  -0.4094  -0.2814  -0.2175
    -0.1892  -0.1557  -0.0646   0.0388   0.0785   0.1105   0.1895   0.3254
     0.4160   0.4419   0.5095   0.5703   0.6117   0.6663   0.7173   0.7753
     0.8079   0.8585   0.9363   0.9875   1.1346   1.1640   1.2562   1.2944
     1.3528   1.4646   1.5802   1.6563   1.7114   1.8110   1.8804   1.9407
     2.0066   2.1489   2.2106   2.2983   2.3837   2.4536   2.5983   2.6665
     2.7989   2.8146   2.9755   3.0432   3.1824   3.3180   3.3586   3.4214
     3.5414   3.6552   3.7115   3.9247   4.0573   4.1825   4.2479   4.3907
     4.5130   4.5898   4.6283   4.8381   4.9139   4.9614   5.0048   5.1633
     5.1850   5.2964   5.4756   5.5377   5.5813   5.6494   5.7272   5.8589
     5.9461   6.1067   6.1345   6.1815   6.2564   6.3011   6.4275

          k = 0.0000 0.0000-0.4486 ( 29102 PWs)   bands (ev):

   -11.3496 -10.7441 -10.1920  -9.4311  -9.2305  -8.9138  -8.8118  -8.7722
    -8.6709  -8.5553  -8.4586  -8.4370  -8.3059  -8.2572  -8.1952  -8.0273
    -7.9808  -7.8087  -7.6878  -7.4417  -6.9840  -6.4384  -1.9591  -1.8613
    -1.5507  -1.5153  -1.3609  -1.2164  -1.1338  -1.0934  -1.0141  -0.9247
    -0.8727  -0.8187  -0.6529  -0.6186  -0.4469  -0.3575  -0.3159  -0.2045
    -0.1384  -0.0356   0.0348   0.0910   0.1043   0.1534   0.2115   0.3252
     0.3752   0.3996   0.4956   0.5133   0.5703   0.6224   0.7036   0.8233
     0.8518   0.9366   0.9788   1.0793   1.1160   1.1742   1.2457   1.2821
     1.4230   1.4818   1.5271   1.5477   1.7898   1.8356   1.9325   1.9536
     2.0232   2.0830   2.1810   2.2474   2.2781   2.3817   2.5184   2.6505
     2.7639   2.8552   3.0583   3.0815   3.1784   3.2130   3.3495   3.4544
     3.6118   3.6433   3.8363   3.9775   4.0536   4.1369   4.2152   4.3838
     4.4354   4.5697   4.6603   4.7936   4.8814   4.9167   4.9462   5.2450
     5.2568   5.3152   5.4189   5.5146   5.6521   5.6841   5.7921   5.8228
     5.9468   6.0054   6.1414   6.1509   6.3067   6.3788   6.4424

          k = 0.0000-0.5101 0.1585 ( 29118 PWs)   bands (ev):

   -11.3373 -10.7511 -10.2135  -9.4953  -9.1182  -8.8955  -8.8226  -8.7901
    -8.6392  -8.5692  -8.5073  -8.4334  -8.2910  -8.2817  -8.2003  -8.0365
    -7.9763  -7.7841  -7.6957  -7.4197  -6.9811  -6.4507  -2.0286  -1.8695
    -1.5625  -1.4825  -1.3681  -1.1949  -1.1316  -1.0340  -0.9613  -0.9469
    -0.8973  -0.8337  -0.7251  -0.4945  -0.4440  -0.3749  -0.2871  -0.1938
    -0.1536  -0.0555  -0.0016   0.0236   0.1140   0.1552   0.2109   0.3289
     0.3730   0.3971   0.4809   0.5587   0.5837   0.6563   0.7674   0.8033
     0.8427   0.9207   1.0148   1.0359   1.0514   1.0858   1.2707   1.2820
     1.4400   1.4520   1.5354   1.6255   1.6887   1.7860   1.9254   1.9790
     2.0983   2.1812   2.2117   2.2441   2.4275   2.4731   2.6715   2.6851
     2.7140   2.7904   2.9057   2.9523   3.1210   3.2441   3.3024   3.3910
     3.6214   3.7478   3.8502   3.8799   4.0361   4.1198   4.2033   4.3074
     4.3665   4.5641   4.6516   4.7723   4.8922   4.9507   5.0609   5.1997
     5.2414   5.3056   5.4203   5.4354   5.5774   5.6671   5.7937   5.8420
     5.9367   6.0404   6.1160   6.1852   6.3494   6.3702   6.4845

          k = 0.0000-0.5101-0.2902 ( 29118 PWs)   bands (ev):

   -11.3385 -10.7518 -10.2054  -9.3897  -9.2991  -8.9077  -8.8172  -8.7590
    -8.6557  -8.5605  -8.4486  -8.4349  -8.3123  -8.2681  -8.1853  -8.0382
    -7.9755  -7.7747  -7.6914  -7.4355  -6.9836  -6.4569  -2.0440  -1.8943
    -1.5079  -1.4556  -1.3833  -1.2397  -1.2070  -1.1054  -1.0108  -0.8745
    -0.8154  -0.7436  -0.5942  -0.5235  -0.4496  -0.4100  -0.3562  -0.2620
    -0.1940  -0.0815   0.0037   0.0379   0.1032   0.1448   0.2340   0.2931
     0.4052   0.4720   0.5094   0.5309   0.5984   0.6453   0.7852   0.8494
     0.8792   0.9335   1.0241   1.1147   1.1556   1.1700   1.2464   1.3098
     1.3536   1.3680   1.5520   1.5952   1.6672   1.7631   1.8300   1.9350
     2.0511   2.0639   2.1818   2.2211   2.4337   2.4605   2.5827   2.6443
     2.7466   2.8760   2.9776   3.0801   3.1277   3.2559   3.3505   3.4487
     3.6176   3.6268   3.8072   3.8770   4.0342   4.1530   4.2968   4.3565
     4.4059   4.4547   4.5962   4.7389   4.8597   4.9444   5.0075   5.1588
     5.3449   5.4271   5.4473   5.4943   5.5920   5.6864   5.7870   5.8312
     5.9349   6.0916   6.1139   6.1604   6.2702   6.3153   6.4605

          k =-0.5000 0.0718 0.0267 ( 29090 PWs)   bands (ev):

   -11.3451 -10.7460 -10.2001  -9.3580  -9.2407  -8.8964  -8.8105  -8.7935
    -8.7534  -8.5579  -8.5282  -8.4306  -8.3120  -8.2543  -8.1714  -8.0223
    -7.9173  -7.8001  -7.7054  -7.4181  -6.9929  -6.4557  -2.0317  -1.7849
    -1.5065  -1.4581  -1.3581  -1.2019  -1.0959  -1.0588  -0.8924  -0.8671
    -0.7747  -0.7014  -0.6707  -0.5872  -0.4798  -0.3681  -0.3197  -0.2726
    -0.2160  -0.1908  -0.1096   0.0358   0.1107   0.1386   0.1958   0.2393
     0.3505   0.3756   0.4617   0.5044   0.6101   0.6313   0.7077   0.7961
     0.8688   0.9053   0.9427   1.0684   1.1132   1.2404   1.2722   1.3416
     1.3617   1.4321   1.5727   1.6682   1.6715   1.8107   1.9100   1.9406
     1.9729   2.0706   2.1238   2.2251   2.3008   2.4105   2.5463   2.6935
     2.7259   2.8737   2.8783   3.0388   3.1303   3.3154   3.3857   3.6042
     3.6819   3.7331   3.7811   3.8684   3.9957   4.2448   4.2883   4.4151
     4.4341   4.5725   4.6314   4.6713   4.8553   4.9974   5.0625   5.1561
     5.2867   5.3903   5.4702   5.4903   5.6131   5.7208   5.7978   5.9035
     5.9788   6.0866   6.1343   6.2052   6.3072   6.4340   6.4534

          k =-0.5000 0.0718-0.4220 ( 29094 PWs)   bands (ev):

   -11.3432 -10.7459 -10.2034  -9.3722  -9.1931  -8.9983  -8.8399  -8.7785
    -8.7006  -8.5708  -8.4502  -8.4270  -8.3380  -8.2489  -8.1580  -8.0182
    -7.9386  -7.8071  -7.6932  -7.4390  -6.9927  -6.4519  -1.9446  -1.8329
    -1.5398  -1.4628  -1.3610  -1.2107  -1.0708  -1.0026  -0.9976  -0.9155
    -0.8245  -0.7916  -0.6566  -0.5829  -0.4956  -0.3924  -0.3059  -0.2723
    -0.1536  -0.1284  -0.0604   0.0132   0.0308   0.1950   0.2075   0.2755
     0.3189   0.4772   0.5116   0.5625   0.6092   0.7044   0.7247   0.7950
     0.8581   0.8899   0.9643   1.0275   1.1224   1.1880   1.2872   1.3501
     1.4199   1.4858   1.5293   1.6469   1.7040   1.7226   1.8190   1.9056
     1.9479   2.1417   2.2224   2.2398   2.2788   2.3406   2.4500   2.5740
     2.6354   2.8272   2.9609   3.1197   3.1960   3.4067   3.4431   3.5063
     3.6823   3.7532   3.8835   3.9582   3.9725   4.1001   4.2142   4.3152
     4.3771   4.5908   4.6519   4.7533   4.8782   4.8936   5.1025   5.1400
     5.2711   5.3310   5.4348   5.5306   5.6554   5.8019   5.8292   5.9232
     5.9589   6.1198   6.1885   6.2621   6.3159   6.3713   6.3992

          k =-0.5000-0.4383 0.1851 ( 29040 PWs)   bands (ev):

   -11.3331 -10.7490 -10.2305  -9.3124  -9.2721  -8.9323  -8.8133  -8.7845
    -8.7129  -8.5596  -8.5213  -8.4360  -8.3074  -8.2545  -8.1707  -8.0328
    -7.9270  -7.7935  -7.6970  -7.4229  -6.9745  -6.4627  -2.0193  -1.8473
    -1.5465  -1.4616  -1.4074  -1.2647  -1.1007  -1.0375  -0.9741  -0.8467
    -0.7279  -0.6619  -0.6061  -0.5357  -0.4948  -0.4043  -0.3669  -0.2560
    -0.1956  -0.1282  -0.0654   0.0822   0.1299   0.1564   0.2215   0.2531
     0.3113   0.3637   0.4799   0.5809   0.6103   0.6714   0.7083   0.7442
     0.8328   0.9676   1.0067   1.0314   1.0883   1.1981   1.2641   1.3400
     1.4098   1.4592   1.5535   1.6230   1.6774   1.7022   1.8327   1.9205
     2.0235   2.1513   2.1800   2.2651   2.3391   2.3944   2.4875   2.6241
     2.7168   2.8742   2.9197   2.9698   3.1329   3.3226   3.4557   3.5432
     3.6693   3.7254   3.7723   3.9416   3.9915   4.1323   4.1555   4.2455
     4.4947   4.5213   4.6529   4.7046   4.8355   4.9770   5.0520   5.1824
     5.2819   5.3504   5.4325   5.5756   5.5871   5.6602   5.8371   5.9294
     5.9665   6.0887   6.1659   6.2209   6.3328   6.3877   6.4644

          k =-0.5000-0.4383-0.2635 ( 29084 PWs)   bands (ev):

   -11.3342 -10.7494 -10.2224  -9.2767  -9.2494  -9.0197  -8.8498  -8.7971
    -8.7773  -8.5171  -8.4365  -8.4294  -8.3236  -8.2461  -8.1531  -8.0181
    -7.9245  -7.7999  -7.6867  -7.4417  -6.9762  -6.4701  -2.0776  -1.8655
    -1.5486  -1.4778  -1.3145  -1.1739  -1.1028  -1.0827  -0.9586  -0.8785
    -0.8083  -0.6509  -0.6497  -0.5284  -0.4386  -0.3211  -0.3046  -0.2670
    -0.2357  -0.1062  -0.0555   0.0233   0.0378   0.1402   0.1787   0.2392
     0.3751   0.4339   0.4796   0.5225   0.6550   0.7115   0.7532   0.7925
     0.8422   0.9343   1.0117   1.0257   1.0927   1.1946   1.2598   1.3325
     1.3699   1.4377   1.5345   1.6211   1.6768   1.7547   1.8239   1.9083
     2.0362   2.0904   2.1746   2.2380   2.3216   2.4103   2.4873   2.6249
     2.6400   2.7784   2.8869   3.0855   3.1219   3.4023   3.4278   3.5755
     3.6497   3.7459   3.7800   3.9436   3.9997   4.1038   4.2081   4.3387
     4.5091   4.5785   4.6578   4.7277   4.8364   4.9425   5.0399   5.1406
     5.2486   5.3111   5.3831   5.5067   5.5509   5.6862   5.8517   5.8857
     6.0382   6.1084   6.1817   6.2614   6.3238   6.3924   6.5439

     the Fermi energy is     4.7027 ev

!    total energy              =    -773.74889398 Ry
     Harris-Foulkes estimate   =    -773.74889452 Ry
     estimated scf accuracy    <       0.00000061 Ry

     The total energy is the sum of the following terms:

     one-electron contribution =    -363.11847377 Ry
     hartree contribution      =     277.87937786 Ry
     xc contribution           =    -306.13570630 Ry
     ewald contribution        =    -382.37300535 Ry
     smearing contrib. (-TS)   =      -0.00108643 Ry

     convergence has been achieved in  14 iterations

     Forces acting on atoms (cartesian axes, Ry/au):

     atom    1 type  1   force =    -0.02913761   -0.01772753   -0.00886922
     atom    2 type  1   force =     0.01992451    0.00250194   -0.00672875
     atom    3 type  1   force =    -0.01701179    0.01110215    0.01756932
     atom    4 type  1   force =     0.04168749   -0.04286112   -0.00013213
     atom    5 type  1   force =     0.00579082    0.02454283    0.05608965
     atom    6 type  1   force =    -0.01556209   -0.00138912    0.00723067
     atom    7 type  1   force =     0.01381441   -0.00789033    0.03792074
     atom    8 type  1   force =    -0.00843371   -0.03486937    0.02413936
     atom    9 type  1   force =     0.01692268   -0.01416115   -0.01921298
     atom   10 type  1   force =    -0.01850244   -0.01063420   -0.01211527
     atom   11 type  1   force =     0.05053321   -0.00364305    0.01722233
     atom   12 type  2   force =     0.01653856    0.01780444   -0.03877621
     atom   13 type  2   force =    -0.01031026    0.00510784    0.00749533
     atom   14 type  2   force =    -0.00979962    0.01823299    0.03908533
     atom   15 type  2   force =    -0.01599722   -0.00592353   -0.02293918
     atom   16 type  2   force =     0.00010875   -0.01322329   -0.03224139
     atom   17 type  2   force =    -0.01332854   -0.00767721    0.00699654
     atom   18 type  2   force =     0.00788381    0.03453703   -0.04246122
     atom   19 type  2   force =     0.02975278    0.00445317    0.01417608
     atom   20 type  2   force =    -0.01599483   -0.01531693    0.02981412
     atom   21 type  2   force =     0.01470996   -0.00243232   -0.02357415
     atom   22 type  2   force =    -0.01779721   -0.01375624   -0.02874477
     atom   23 type  2   force =    -0.00278698    0.02216642    0.00908663
     atom   24 type  2   force =    -0.01169731   -0.01210265   -0.00822986
     atom   25 type  2   force =    -0.01646730   -0.02826116   -0.00658392
     atom   26 type  2   force =     0.00953522    0.04490730    0.00595064
     atom   27 type  2   force =    -0.01010682   -0.04700083    0.01930314
     atom   28 type  2   force =    -0.00251050    0.04043755    0.00692950
     atom   29 type  2   force =     0.02053398    0.04036305   -0.03445638
     atom   30 type  2   force =    -0.01431783    0.00337099    0.01557572
     atom   31 type  2   force =    -0.00070001    0.00762096   -0.00859306
     atom   32 type  2   force =    -0.00077344    0.01732035   -0.01510065
     atom   33 type  2   force =    -0.01650066   -0.01559902   -0.00582598

     Total force =     0.213605     Total SCF correction =     0.001304
 
     init_run     :      5.05s CPU      5.20s WALL (       1 calls)
     electrons    :    123.12s CPU    125.75s WALL (       1 calls)
     forces       :      2.84s CPU      2.92s WALL (       1 calls)

     Called by init_run:
     wfcinit      :      3.33s CPU      3.39s WALL (       1 calls)
     potinit      :      0.45s CPU      0.45s WALL (       1 calls)
     hinit0       :      0.60s CPU      0.62s WALL (       1 calls)

     Called by electrons:
     c_bands      :     98.83s CPU     99.90s WALL (      14 calls)
     sum_band     :     18.35s CPU     19.45s WALL (      14 calls)
     v_of_rho     :      1.14s CPU      1.18s WALL (      15 calls)
     newd         :      3.64s CPU      4.02s WALL (      15 calls)
     mix_rho      :      1.30s CPU      1.36s WALL (      14 calls)

     Called by c_bands:
     init_us_2    :      2.52s CPU      2.54s WALL (     240 calls)
     cegterg      :     91.63s CPU     92.65s WALL (     112 calls)

     Called by sum_band:
     sum_band:bec :      0.20s CPU      0.20s WALL (     112 calls)
     addusdens    :      5.63s CPU      6.49s WALL (      14 calls)

     Called by *egterg:
     h_psi        :     51.64s CPU     52.39s WALL (     500 calls)
     s_psi        :      9.09s CPU      9.10s WALL (     500 calls)
     g_psi        :      0.24s CPU      0.24s WALL (     380 calls)
     cdiaghg      :     17.48s CPU     17.73s WALL (     492 calls)

     Called by h_psi:
     h_psi:pot    :     51.06s CPU     51.80s WALL (     500 calls)
     h_psi:calbec :     10.50s CPU     10.72s WALL (     500 calls)
     vloc_psi     :     31.43s CPU     31.93s WALL (     500 calls)
     add_vuspsi   :      9.13s CPU      9.15s WALL (     500 calls)

     General routines
     calbec       :     15.59s CPU     15.92s WALL (     644 calls)
     fft          :      0.99s CPU      1.06s WALL (     204 calls)
     ffts         :      0.61s CPU      0.67s WALL (     522 calls)
     fftw         :     35.70s CPU     36.27s WALL (   78148 calls)
     interpolate  :      0.10s CPU      0.11s WALL (      15 calls)
 
     Parallel routines
     fft_scatt_xy :      3.89s CPU      3.96s WALL (   78874 calls)
     fft_scatt_yz :     15.76s CPU     16.11s WALL (   78874 calls)
 
     PWSCF        :   2m11.75s CPU   2m14.71s WALL

 
   This run was terminated on:  14:48:34   3Dec2021            

=------------------------------------------------------------------------------=
   JOB DONE.
=------------------------------------------------------------------------------=
