
     Program PWSCF v.6.4 starts on 23Dec2021 at 23: 8:20 

     This program is part of the open-source Quantum ESPRESSO suite
     for quantum simulation of materials; please cite
         "P. Giannozzi et al., J. Phys.:Condens. Matter 21 395502 (2009);
         "P. Giannozzi et al., J. Phys.:Condens. Matter 29 465901 (2017);
          URL http://www.quantum-espresso.org", 
     in publications or presentations arising from this work. More details at
     http://www.quantum-espresso.org/quote

     Parallel version (MPI), running on    40 processors

     MPI processes distributed on     1 nodes
     R & G space division:  proc/nbgrp/npool/nimage =      40
     Waiting for input...
     Reading input from standard input
Warning: card    &IONS ignored
Warning: card      ION_DYNAMICS = 'BFGS' ignored
Warning: card   / ignored
Warning: card    &CELL ignored
Warning: card      CELL_DYNAMICS = 'BFGS', ignored
Warning: card    / ignored

     Current dimensions of program PWSCF are:
     Max number of different atomic species (ntypx) = 10
     Max number of k-points (npk) =  40000
     Max angular momentum in pseudopotentials (lmaxx) =  3

     Subspace diagonalization in iterative solution of the eigenvalue problem:
     one sub-group per band group will be used
     scalapack distributed-memory algorithm (size of sub-group:  4*  4 procs)

 
     Parallelization info
     --------------------
     sticks:   dense  smooth     PW     G-vecs:    dense   smooth      PW
     Min         159      80     21                18006     6365     883
     Max         160      81     22                18013     6372     888
     Sum        6379    3201    859               720373   254747   35397
 


     bravais-lattice index     =            0
     lattice parameter (alat)  =      12.7141  a.u.
     unit-cell volume          =    6245.6264 (a.u.)^3
     number of atoms/cell      =           36
     number of atomic types    =            2
     number of electrons       =       216.00
     number of Kohn-Sham states=          130
     kinetic-energy cutoff     =      45.0000  Ry
     charge density cutoff     =     360.0000  Ry
     convergence threshold     =      1.0E-06
     mixing beta               =       0.7000
     number of iterations used =            8  local-TF  mixing
     Exchange-correlation      = SLA PW GGX GGC ( 1  4  2  2 0 0)

     celldm(1)=  12.714073  celldm(2)=   0.000000  celldm(3)=   0.000000
     celldm(4)=   0.000000  celldm(5)=   0.000000  celldm(6)=   0.000000

     crystal axes: (cart. coord. in units of alat)
               a(1) = (   1.000000   0.000000   0.000000 )  
               a(2) = (  -0.020434   1.379283   0.000000 )  
               a(3) = (  -0.334518  -0.590688   2.203273 )  

     reciprocal axes: (cart. coord. in units 2 pi/alat)
               b(1) = (  1.000000  0.014815  0.155800 )  
               b(2) = (  0.000000  0.725014  0.194373 )  
               b(3) = (  0.000000  0.000000  0.453870 )  


     PseudoPot. # 1 for Mo read from file:
     ~/pseudo/Mo.pw91-n-van.UPF
     MD5 check sum: Not computed, couldn't open file
     Pseudo is Ultrasoft + core correction, Zval =  6.0
     Generated by new atomic code, or converted to UPF format
     Using radial grid of  965 points,  3 beta functions with: 
                l(1) =   1
                l(2) =   2
                l(3) =   2
     Q(r) pseudized with  8 coefficients,  rinner =    1.000   1.000   1.000
                                                       1.200   1.200

     PseudoPot. # 2 for S  read from file:
     ~/pseudo/S.pw91-van_ak.UPF
     MD5 check sum: Not computed, couldn't open file
     Pseudo is Ultrasoft, Zval =  6.0
     Generated by new atomic code, or converted to UPF format
     Using radial grid of  811 points,  6 beta functions with: 
                l(1) =   0
                l(2) =   0
                l(3) =   1
                l(4) =   1
                l(5) =   2
                l(6) =   2
     Q(r) pseudized with  8 coefficients,  rinner =    1.100   1.100   1.100
                                                       1.100   1.100

     atomic species   valence    mass     pseudopotential
        Mo             6.00    95.50000     Mo( 1.00)
        S              6.00    32.06500     S ( 1.00)

     No symmetry found



   Cartesian axes

     site n.     atom                  positions (alat units)
         1           Mo  tau(   1) = (   0.6638764   1.1245100   0.7505636  )
         2           Mo  tau(   2) = (   0.2529914   0.3648562   0.2455574  )
         3           Mo  tau(   3) = (   0.1337854   0.0447404   2.1962463  )
         4           Mo  tau(   4) = (  -0.0676454   0.2843392   1.6198728  )
         5           Mo  tau(   5) = (   0.6990812   0.1033960   0.9671776  )
         6           Mo  tau(   6) = (   0.0406614  -0.0219499   0.7730020  )
         7           Mo  tau(   7) = (  -0.2935629   0.0305616   2.1734543  )
         8           Mo  tau(   8) = (   0.3199203   0.5198755   1.1787455  )
         9           Mo  tau(   9) = (   0.5295342   1.1009158   0.1382029  )
        10           Mo  tau(  10) = (   0.7167359   0.8359174   0.4280471  )
        11           Mo  tau(  11) = (   0.0757277   0.4397593   1.9590493  )
        12           Mo  tau(  12) = (   0.7404256   0.5222253   1.0705660  )
        13           S   tau(  13) = (   0.5621320   0.7261354   1.2961473  )
        14           S   tau(  14) = (  -0.1174543   0.6063525   1.7257386  )
        15           S   tau(  15) = (   0.8083385   0.9113559   0.0815212  )
        16           S   tau(  16) = (   0.5016704   0.5772678   0.3421560  )
        17           S   tau(  17) = (   0.6689127   0.7664349   0.7871499  )
        18           S   tau(  18) = (  -0.0209990   0.5606462   0.3167465  )
        19           S   tau(  19) = (   0.1775890   0.1394307   1.8356002  )
        20           S   tau(  20) = (   0.6743192   0.1432647   1.8179547  )
        21           S   tau(  21) = (   0.0029643   0.2968534   0.9189778  )
        22           S   tau(  22) = (  -0.1152590  -0.1964681   1.0694411  )
        23           S   tau(  23) = (  -0.0780904  -0.2231862   2.0878924  )
        24           S   tau(  24) = (   0.4389465   1.0397961   0.4705977  )
        25           S   tau(  25) = (   0.2263096   0.2733256   1.3979267  )
        26           S   tau(  26) = (   0.7270456   0.2424905   1.3128832  )
        27           S   tau(  27) = (   0.7327397   0.0712829   0.6086224  )
        28           S   tau(  28) = (   0.4591761   0.3673882   0.8929123  )
        29           S   tau(  29) = (   0.3386672   0.6444109   2.0164181  )
        30           S   tau(  30) = (   0.2486190   0.9243913   0.0585214  )
        31           S   tau(  31) = (   0.3837343  -0.1248734   0.9459792  )
        32           S   tau(  32) = (   0.2219555   0.1104011   0.4993440  )
        33           S   tau(  33) = (   0.0494052   0.7175878   1.1011645  )
        34           S   tau(  34) = (  -0.0088727   1.0213926   0.6093513  )
        35           S   tau(  35) = (   0.4208788  -0.1672729   2.1067989  )
        36           S   tau(  36) = (   0.5181407   0.0812924   0.1726280  )

     number of k points=     4  Marzari-Vanderbilt smearing, width (Ry)=  0.0200
                       cart. coord. in units 2pi/alat
        k(    1) = (   0.0000000   0.0000000   0.0000000), wk =   0.3333333
        k(    2) = (   0.0000000  -0.3625071  -0.0971865), wk =   0.3333333
        k(    3) = (   0.3333333   0.0049383   0.0519332), wk =   0.6666667
        k(    4) = (   0.3333333  -0.3575688  -0.0452533), wk =   0.6666667

     Dense  grid:   720373 G-vectors     FFT dimensions: (  80, 108, 180)

     Smooth grid:   254747 G-vectors     FFT dimensions: (  60,  75, 125)

     Estimated max dynamical RAM per process >     112.62 MB

     Estimated total dynamical RAM >       4.40 GB

     Initial potential from superposition of free atoms

     starting charge  215.98107, renormalised to  216.00000
     Starting wfcs are  204 randomized atomic wfcs

     total cpu time spent up to now is        4.7 secs

     Self-consistent Calculation

     iteration #  1     ecut=    45.00 Ry     beta= 0.70
     Davidson diagonalization with overlap
     ethr =  1.00E-02,  avg # of iterations =  2.0

     total cpu time spent up to now is       10.4 secs

     total energy              =    -842.28847438 Ry
     Harris-Foulkes estimate   =    -845.66021351 Ry
     estimated scf accuracy    <       8.91510064 Ry

     iteration #  2     ecut=    45.00 Ry     beta= 0.70
     Davidson diagonalization with overlap
     ethr =  4.13E-03,  avg # of iterations =  2.0

     total cpu time spent up to now is       16.0 secs

     total energy              =    -843.70456076 Ry
     Harris-Foulkes estimate   =    -844.36454210 Ry
     estimated scf accuracy    <       3.56941099 Ry

     iteration #  3     ecut=    45.00 Ry     beta= 0.70
     Davidson diagonalization with overlap
     ethr =  1.65E-03,  avg # of iterations =  1.0

     total cpu time spent up to now is       20.5 secs

     total energy              =    -844.01180861 Ry
     Harris-Foulkes estimate   =    -844.05886937 Ry
     estimated scf accuracy    <       0.35336833 Ry

     iteration #  4     ecut=    45.00 Ry     beta= 0.70
     Davidson diagonalization with overlap
     ethr =  1.64E-04,  avg # of iterations =  3.0

     total cpu time spent up to now is       26.1 secs

     total energy              =    -844.04327941 Ry
     Harris-Foulkes estimate   =    -844.07477121 Ry
     estimated scf accuracy    <       0.10139839 Ry

     iteration #  5     ecut=    45.00 Ry     beta= 0.70
     Davidson diagonalization with overlap
     ethr =  4.69E-05,  avg # of iterations =  2.0

     total cpu time spent up to now is       31.1 secs

     total energy              =    -844.05668310 Ry
     Harris-Foulkes estimate   =    -844.06153127 Ry
     estimated scf accuracy    <       0.03582331 Ry

     iteration #  6     ecut=    45.00 Ry     beta= 0.70
     Davidson diagonalization with overlap
     ethr =  1.66E-05,  avg # of iterations =  6.5

     total cpu time spent up to now is       37.0 secs

     total energy              =    -844.05874225 Ry
     Harris-Foulkes estimate   =    -844.06016721 Ry
     estimated scf accuracy    <       0.01119724 Ry

     iteration #  7     ecut=    45.00 Ry     beta= 0.70
     Davidson diagonalization with overlap
     ethr =  5.18E-06,  avg # of iterations = 11.5

     total cpu time spent up to now is       44.8 secs

     total energy              =    -844.05875561 Ry
     Harris-Foulkes estimate   =    -844.05972796 Ry
     estimated scf accuracy    <       0.00360217 Ry

     iteration #  8     ecut=    45.00 Ry     beta= 0.70
     Davidson diagonalization with overlap
     ethr =  1.67E-06,  avg # of iterations =  3.8

     total cpu time spent up to now is       50.2 secs

     total energy              =    -844.05914147 Ry
     Harris-Foulkes estimate   =    -844.05932435 Ry
     estimated scf accuracy    <       0.00086082 Ry

     iteration #  9     ecut=    45.00 Ry     beta= 0.70
     Davidson diagonalization with overlap
     ethr =  3.99E-07,  avg # of iterations =  2.8

     total cpu time spent up to now is       55.4 secs

     total energy              =    -844.05916107 Ry
     Harris-Foulkes estimate   =    -844.05925452 Ry
     estimated scf accuracy    <       0.00051655 Ry

     iteration # 10     ecut=    45.00 Ry     beta= 0.70
     Davidson diagonalization with overlap
     ethr =  2.39E-07,  avg # of iterations =  1.0

     total cpu time spent up to now is       59.9 secs

     total energy              =    -844.05917091 Ry
     Harris-Foulkes estimate   =    -844.05919693 Ry
     estimated scf accuracy    <       0.00008268 Ry

     iteration # 11     ecut=    45.00 Ry     beta= 0.70
     Davidson diagonalization with overlap
     ethr =  3.83E-08,  avg # of iterations =  4.2

     total cpu time spent up to now is       66.7 secs

     total energy              =    -844.05918733 Ry
     Harris-Foulkes estimate   =    -844.05919646 Ry
     estimated scf accuracy    <       0.00007629 Ry

     iteration # 12     ecut=    45.00 Ry     beta= 0.70
     Davidson diagonalization with overlap
     ethr =  3.53E-08,  avg # of iterations =  1.0

     total cpu time spent up to now is       71.2 secs

     total energy              =    -844.05918965 Ry
     Harris-Foulkes estimate   =    -844.05919083 Ry
     estimated scf accuracy    <       0.00000507 Ry

     iteration # 13     ecut=    45.00 Ry     beta= 0.70
     Davidson diagonalization with overlap
     ethr =  2.35E-09,  avg # of iterations =  4.0

     total cpu time spent up to now is       77.3 secs

     total energy              =    -844.05918993 Ry
     Harris-Foulkes estimate   =    -844.05919061 Ry
     estimated scf accuracy    <       0.00000247 Ry

     iteration # 14     ecut=    45.00 Ry     beta= 0.70
     Davidson diagonalization with overlap
     ethr =  1.14E-09,  avg # of iterations =  2.0

     total cpu time spent up to now is       82.2 secs

     total energy              =    -844.05919009 Ry
     Harris-Foulkes estimate   =    -844.05919030 Ry
     estimated scf accuracy    <       0.00000142 Ry

     iteration # 15     ecut=    45.00 Ry     beta= 0.70
     Davidson diagonalization with overlap
     ethr =  6.56E-10,  avg # of iterations =  1.0

     total cpu time spent up to now is       86.5 secs

     End of self-consistent calculation

          k = 0.0000 0.0000 0.0000 ( 31849 PWs)   bands (ev):

   -10.0524  -9.4376  -9.2673  -9.0617  -8.9713  -8.7649  -8.7321  -8.5111
    -8.4551  -8.4210  -8.3094  -8.2813  -8.1764  -8.0691  -8.0211  -7.9469
    -7.8564  -7.8031  -7.7314  -7.6785  -7.6714  -7.5149  -7.4568  -7.2739
    -2.0093  -1.6418  -1.5178  -1.4226  -1.2067  -1.1282  -1.0311  -0.9292
    -0.8587  -0.8019  -0.6695  -0.5893  -0.5235  -0.4272  -0.3698  -0.3638
    -0.2657  -0.2034  -0.0917  -0.0627  -0.0409   0.0654   0.0881   0.1948
     0.2112   0.3012   0.3267   0.3819   0.4395   0.4899   0.5538   0.5805
     0.6206   0.6544   0.7099   0.8356   0.8764   0.9458   1.0376   1.0563
     1.1133   1.1567   1.2170   1.2649   1.3824   1.4257   1.4613   1.5077
     1.5697   1.6216   1.7170   1.7411   1.8203   1.9016   2.0655   2.0826
     2.2342   2.3495   2.4010   2.4239   2.4591   2.4879   2.5554   2.6479
     2.7450   2.8125   2.9213   3.0158   3.0486   3.0736   3.2634   3.2822
     3.3417   3.4838   3.6193   3.6449   3.7337   3.7887   3.9718   4.0558
     4.1085   4.2179   4.2898   4.3290   4.4642   4.5487   4.6676   4.6932
     4.7714   4.8719   4.8966   5.0215   5.0864   5.1396   5.1532   5.2263
     5.3046   5.4106   5.5442   5.5602   5.6483   5.7568   5.8229   5.8872
     6.0310   6.0884

          k = 0.0000-0.3625-0.0972 ( 31884 PWs)   bands (ev):

   -10.0361  -9.3499  -9.3103  -9.0588  -9.0135  -8.8970  -8.7440  -8.4978
    -8.4746  -8.4106  -8.2963  -8.2643  -8.1767  -8.0376  -7.9643  -7.9133
    -7.8326  -7.8081  -7.7403  -7.6998  -7.6692  -7.5062  -7.4674  -7.2836
    -2.0601  -1.7001  -1.4930  -1.4180  -1.2826  -1.1431  -0.9788  -0.9085
    -0.8603  -0.7287  -0.6292  -0.5590  -0.4923  -0.4757  -0.3860  -0.3393
    -0.3045  -0.2130  -0.0608  -0.0043   0.0139   0.0611   0.1034   0.1901
     0.2213   0.2659   0.3521   0.3873   0.4564   0.4852   0.5313   0.6065
     0.6206   0.6740   0.7316   0.7590   0.8105   0.8826   1.0153   1.0341
     1.0804   1.1160   1.2339   1.2636   1.3404   1.3747   1.4065   1.4901
     1.5167   1.6760   1.7358   1.8046   1.8644   1.9758   2.0439   2.1890
     2.2059   2.2573   2.3662   2.3877   2.4431   2.5251   2.6186   2.6728
     2.7525   2.8535   2.8894   2.9973   3.0900   3.1181   3.2906   3.3332
     3.4507   3.5088   3.5599   3.6316   3.6951   3.7238   4.0006   4.0829
     4.1317   4.2753   4.3304   4.3929   4.4226   4.4643   4.6612   4.7084
     4.7147   4.8508   4.9429   4.9567   5.0150   5.0750   5.1226   5.2168
     5.3126   5.3765   5.4460   5.5591   5.6839   5.7540   5.7692   5.9570
     6.0337   6.1100

          k = 0.3333 0.0049 0.0519 ( 31842 PWs)   bands (ev):

    -9.9058  -9.4538  -9.1968  -9.0721  -8.9294  -8.7743  -8.7324  -8.6454
    -8.5188  -8.4093  -8.3558  -8.2436  -8.1474  -8.0619  -8.0279  -7.9651
    -7.9054  -7.8164  -7.7871  -7.7148  -7.6435  -7.5496  -7.5085  -7.2563
    -1.7909  -1.5578  -1.4661  -1.3079  -1.0923  -1.0557  -0.9803  -0.9128
    -0.8141  -0.7803  -0.6692  -0.5772  -0.5344  -0.4593  -0.3541  -0.2865
    -0.2379  -0.1622  -0.0876  -0.0385   0.0151   0.0741   0.1258   0.1635
     0.2333   0.2713   0.3313   0.3811   0.4166   0.4636   0.4913   0.5400
     0.6006   0.6825   0.7318   0.7691   0.8824   0.9259   1.0101   1.0163
     1.0805   1.1663   1.2421   1.3095   1.3920   1.4402   1.4882   1.5251
     1.6093   1.6608   1.7103   1.7703   1.8554   1.9149   1.9328   2.0482
     2.1448   2.1953   2.2762   2.2889   2.4142   2.4721   2.5427   2.6142
     2.7220   2.8167   2.8954   2.9498   3.1090   3.1400   3.1896   3.2313
     3.3268   3.3824   3.4552   3.5958   3.6979   3.7840   3.8229   4.0379
     4.0866   4.2416   4.3286   4.3593   4.5143   4.5441   4.5927   4.6436
     4.7081   4.7900   4.8851   4.9365   5.0019   5.0769   5.1354   5.2067
     5.2291   5.3482   5.4520   5.5003   5.6490   5.7053   5.7772   5.8638
     6.0107   6.0949

          k = 0.3333-0.3576-0.0453 ( 31822 PWs)   bands (ev):

    -9.8960  -9.4292  -9.1688  -9.0913  -8.9378  -8.8166  -8.7344  -8.6794
    -8.5181  -8.4926  -8.2906  -8.2420  -8.1541  -8.0681  -8.0319  -7.9525
    -7.8807  -7.8055  -7.7153  -7.7083  -7.6855  -7.5498  -7.5045  -7.2622
    -1.8040  -1.5587  -1.4480  -1.3208  -1.1709  -1.0654  -0.9331  -0.9162
    -0.7797  -0.6911  -0.6468  -0.5462  -0.5143  -0.4451  -0.3700  -0.3075
    -0.2174  -0.1931  -0.1320  -0.0826   0.0398   0.0894   0.0991   0.1460
     0.2271   0.2629   0.3117   0.3861   0.4362   0.4739   0.4972   0.5290
     0.6194   0.6991   0.7530   0.8146   0.8445   0.9434   0.9624   1.0296
     1.0819   1.1085   1.2037   1.2944   1.3143   1.4003   1.4735   1.5423
     1.5907   1.6192   1.6752   1.7587   1.8349   1.9042   1.9836   2.0547
     2.1525   2.2193   2.2942   2.3774   2.4232   2.4920   2.5447   2.6988
     2.8109   2.8357   2.8921   2.9309   3.0097   3.0830   3.1882   3.2469
     3.3100   3.3760   3.5139   3.6151   3.7130   3.7718   3.9169   4.0018
     4.0368   4.2121   4.2975   4.3663   4.4017   4.5090   4.5733   4.6025
     4.6717   4.7823   4.9244   4.9877   5.0261   5.0911   5.1835   5.2212
     5.2976   5.3792   5.4701   5.5508   5.6354   5.7626   5.8316   5.9387
     6.0270   6.1109

     the Fermi energy is     4.4157 ev

!    total energy              =    -844.05918996 Ry
     Harris-Foulkes estimate   =    -844.05919020 Ry
     estimated scf accuracy    <       0.00000026 Ry

     The total energy is the sum of the following terms:

     one-electron contribution =    -363.08230194 Ry
     hartree contribution      =     286.50583146 Ry
     xc contribution           =    -332.77646264 Ry
     ewald contribution        =    -434.69666976 Ry
     smearing contrib. (-TS)   =      -0.00958708 Ry

     convergence has been achieved in  15 iterations

     Forces acting on atoms (cartesian axes, Ry/au):

     atom    1 type  1   force =     0.01145705    0.00565759    0.03171514
     atom    2 type  1   force =     0.01144088   -0.02465019    0.00937782
     atom    3 type  1   force =     0.04031076    0.00242231   -0.01496149
     atom    4 type  1   force =    -0.05469247   -0.02263491   -0.04438828
     atom    5 type  1   force =    -0.00691017   -0.02530365    0.03136868
     atom    6 type  1   force =    -0.01701465   -0.05041054    0.01194132
     atom    7 type  1   force =    -0.04681737   -0.00538670    0.00022150
     atom    8 type  1   force =    -0.03741125   -0.03824176   -0.00466067
     atom    9 type  1   force =     0.07510843    0.09857159    0.01995089
     atom   10 type  1   force =     0.02971202    0.03629304   -0.00329864
     atom   11 type  1   force =     0.00095542    0.03419044    0.01271972
     atom   12 type  1   force =    -0.00873009   -0.01255498   -0.03075941
     atom   13 type  2   force =     0.00561615    0.00712595    0.01290442
     atom   14 type  2   force =     0.00306731   -0.00698673   -0.00288149
     atom   15 type  2   force =    -0.02427094   -0.01713017    0.03792906
     atom   16 type  2   force =    -0.01802602   -0.04382560   -0.00443549
     atom   17 type  2   force =    -0.00420138   -0.01749983    0.01688383
     atom   18 type  2   force =     0.01299671    0.00723816    0.01778866
     atom   19 type  2   force =     0.01430892   -0.00752981   -0.00574615
     atom   20 type  2   force =     0.03615430    0.00168513   -0.00765574
     atom   21 type  2   force =     0.00500574    0.01659606    0.00339798
     atom   22 type  2   force =    -0.02561283    0.01475868   -0.02383066
     atom   23 type  2   force =     0.02536762   -0.01421350    0.00764541
     atom   24 type  2   force =    -0.03324742    0.00810473    0.04226818
     atom   25 type  2   force =     0.00749841    0.01487655   -0.01097666
     atom   26 type  2   force =    -0.00523197    0.01766660   -0.00657602
     atom   27 type  2   force =    -0.00787995    0.00423365   -0.02114068
     atom   28 type  2   force =     0.00564851    0.01432427    0.01357755
     atom   29 type  2   force =    -0.03461063   -0.00983458   -0.00044557
     atom   30 type  2   force =    -0.02316066   -0.00693913   -0.03521552
     atom   31 type  2   force =     0.04211568    0.00993769   -0.02352448
     atom   32 type  2   force =     0.00554058    0.02626870   -0.02063279
     atom   33 type  2   force =     0.02581623    0.00938744    0.01630887
     atom   34 type  2   force =    -0.00727824    0.01949887   -0.01264382
     atom   35 type  2   force =    -0.00619769   -0.00550305   -0.00521069
     atom   36 type  2   force =     0.00317302   -0.04019232   -0.00701479

     Total force =     0.254332     Total SCF correction =     0.001361
 
     init_run     :      3.79s CPU      3.95s WALL (       1 calls)
     electrons    :     79.42s CPU     81.86s WALL (       1 calls)
     forces       :      2.27s CPU      2.34s WALL (       1 calls)

     Called by init_run:
     wfcinit      :      1.94s CPU      2.00s WALL (       1 calls)
     potinit      :      0.48s CPU      0.49s WALL (       1 calls)
     hinit0       :      0.62s CPU      0.63s WALL (       1 calls)

     Called by electrons:
     c_bands      :     58.36s CPU     59.07s WALL (      15 calls)
     sum_band     :     14.41s CPU     15.52s WALL (      15 calls)
     v_of_rho     :      1.17s CPU      1.23s WALL (      16 calls)
     newd         :      4.17s CPU      4.68s WALL (      16 calls)
     mix_rho      :      1.47s CPU      1.55s WALL (      15 calls)

     Called by c_bands:
     init_us_2    :      1.49s CPU      1.51s WALL (     128 calls)
     cegterg      :     53.94s CPU     54.62s WALL (      60 calls)

     Called by sum_band:
     sum_band:bec :      0.11s CPU      0.11s WALL (      60 calls)
     addusdens    :      6.40s CPU      7.36s WALL (      15 calls)

     Called by *egterg:
     h_psi        :     30.04s CPU     30.57s WALL (     255 calls)
     s_psi        :      6.01s CPU      6.02s WALL (     255 calls)
     g_psi        :      0.16s CPU      0.16s WALL (     191 calls)
     cdiaghg      :      9.32s CPU      9.46s WALL (     251 calls)

     Called by h_psi:
     h_psi:pot    :     29.72s CPU     30.24s WALL (     255 calls)
     h_psi:calbec :      6.50s CPU      6.67s WALL (     255 calls)
     vloc_psi     :     17.13s CPU     17.46s WALL (     255 calls)
     add_vuspsi   :      6.09s CPU      6.11s WALL (     255 calls)

     General routines
     calbec       :      9.70s CPU      9.95s WALL (     331 calls)
     fft          :      1.34s CPU      1.42s WALL (     217 calls)
     ffts         :      0.64s CPU      0.70s WALL (     585 calls)
     fftw         :     19.38s CPU     19.75s WALL (   44966 calls)
     interpolate  :      0.11s CPU      0.12s WALL (      16 calls)
 
     Parallel routines
     fft_scatt_xy :      1.77s CPU      1.80s WALL (   45768 calls)
     fft_scatt_yz :      9.71s CPU     10.00s WALL (   45768 calls)
 
     PWSCF        :   1m26.19s CPU   1m28.94s WALL

 
   This run was terminated on:  23: 9:49  23Dec2021            

=------------------------------------------------------------------------------=
   JOB DONE.
=------------------------------------------------------------------------------=
