
     Program PWSCF v.6.4 starts on 23Dec2021 at 23:28:47 

     This program is part of the open-source Quantum ESPRESSO suite
     for quantum simulation of materials; please cite
         "P. Giannozzi et al., J. Phys.:Condens. Matter 21 395502 (2009);
         "P. Giannozzi et al., J. Phys.:Condens. Matter 29 465901 (2017);
          URL http://www.quantum-espresso.org", 
     in publications or presentations arising from this work. More details at
     http://www.quantum-espresso.org/quote

     Parallel version (MPI), running on    40 processors

     MPI processes distributed on     1 nodes
     R & G space division:  proc/nbgrp/npool/nimage =      40
     Waiting for input...
     Reading input from standard input
Warning: card    &IONS ignored
Warning: card      ION_DYNAMICS = 'BFGS' ignored
Warning: card   / ignored
Warning: card    &CELL ignored
Warning: card      CELL_DYNAMICS = 'BFGS', ignored
Warning: card    / ignored

     Current dimensions of program PWSCF are:
     Max number of different atomic species (ntypx) = 10
     Max number of k-points (npk) =  40000
     Max angular momentum in pseudopotentials (lmaxx) =  3

     Subspace diagonalization in iterative solution of the eigenvalue problem:
     one sub-group per band group will be used
     scalapack distributed-memory algorithm (size of sub-group:  4*  4 procs)

 
     Parallelization info
     --------------------
     sticks:   dense  smooth     PW     G-vecs:    dense   smooth      PW
     Min         211     105     28                14446     5106     720
     Max         212     106     29                14451     5109     724
     Sum        8471    4237   1153               577957   204317   28891
 


     bravais-lattice index     =            0
     lattice parameter (alat)  =      16.4240  a.u.
     unit-cell volume          =    5011.6138 (a.u.)^3
     number of atoms/cell      =           33
     number of atomic types    =            2
     number of electrons       =       198.00
     number of Kohn-Sham states=          119
     kinetic-energy cutoff     =      45.0000  Ry
     charge density cutoff     =     360.0000  Ry
     convergence threshold     =      1.0E-06
     mixing beta               =       0.7000
     number of iterations used =            8  local-TF  mixing
     Exchange-correlation      = SLA PW GGX GGC ( 1  4  2  2 0 0)

     celldm(1)=  16.423997  celldm(2)=   0.000000  celldm(3)=   0.000000
     celldm(4)=   0.000000  celldm(5)=   0.000000  celldm(6)=   0.000000

     crystal axes: (cart. coord. in units of alat)
               a(1) = (   1.000000   0.000000   0.000000 )  
               a(2) = (   0.167147   1.096356   0.000000 )  
               a(3) = (   0.446693   0.445781   1.031786 )  

     reciprocal axes: (cart. coord. in units 2 pi/alat)
               b(1) = (  1.000000 -0.152457 -0.367063 )  
               b(2) = (  0.000000  0.912113 -0.394077 )  
               b(3) = (  0.000000  0.000000  0.969194 )  


     PseudoPot. # 1 for Mo read from file:
     ~/pseudo/Mo.pw91-n-van.UPF
     MD5 check sum: Not computed, couldn't open file
     Pseudo is Ultrasoft + core correction, Zval =  6.0
     Generated by new atomic code, or converted to UPF format
     Using radial grid of  965 points,  3 beta functions with: 
                l(1) =   1
                l(2) =   2
                l(3) =   2
     Q(r) pseudized with  8 coefficients,  rinner =    1.000   1.000   1.000
                                                       1.200   1.200

     PseudoPot. # 2 for S  read from file:
     ~/pseudo/S.pw91-van_ak.UPF
     MD5 check sum: Not computed, couldn't open file
     Pseudo is Ultrasoft, Zval =  6.0
     Generated by new atomic code, or converted to UPF format
     Using radial grid of  811 points,  6 beta functions with: 
                l(1) =   0
                l(2) =   0
                l(3) =   1
                l(4) =   1
                l(5) =   2
                l(6) =   2
     Q(r) pseudized with  8 coefficients,  rinner =    1.100   1.100   1.100
                                                       1.100   1.100

     atomic species   valence    mass     pseudopotential
        Mo             6.00    95.50000     Mo( 1.00)
        S              6.00    32.06500     S ( 1.00)

     No symmetry found



   Cartesian axes

     site n.     atom                  positions (alat units)
         1           Mo  tau(   1) = (   0.8730775   1.0596892   0.3998651  )
         2           Mo  tau(   2) = (   1.3704413   1.1856684   0.8899769  )
         3           Mo  tau(   3) = (   0.1822593   0.2483448   0.3797519  )
         4           Mo  tau(   4) = (   0.8163334   0.3688080   0.3879811  )
         5           Mo  tau(   5) = (   1.0595765   0.9481663   0.1701307  )
         6           Mo  tau(   6) = (   0.4390802   0.4345112   0.3558115  )
         7           Mo  tau(   7) = (   0.6829103   1.1819487   0.7934121  )
         8           Mo  tau(   8) = (   1.0460617   1.1912563   0.7980656  )
         9           Mo  tau(   9) = (   0.2589802   0.4999766   0.1061627  )
        10           Mo  tau(  10) = (   0.7342825   0.9286142   0.1207236  )
        11           Mo  tau(  11) = (   1.0839713   0.5837772   0.3542837  )
        12           S   tau(  12) = (   0.8722152   1.1316749   1.0027403  )
        13           S   tau(  13) = (   0.8621414   0.9874188   0.6794857  )
        14           S   tau(  14) = (   0.4596083   1.1937400   0.6159958  )
        15           S   tau(  15) = (   1.2131305   0.9770988   0.7955530  )
        16           S   tau(  16) = (   0.5592059   0.9617463   0.9008926  )
        17           S   tau(  17) = (   0.8815235   0.5704043   0.5509132  )
        18           S   tau(  18) = (   0.3750131   0.2636904   0.1646613  )
        19           S   tau(  19) = (   0.6617886   0.5077086   0.2047195  )
        20           S   tau(  20) = (   1.0788942   0.8670490   0.4336543  )
        21           S   tau(  21) = (   0.3440866   0.6878602   0.2965937  )
        22           S   tau(  22) = (   0.9147176   0.7124116   0.1436629  )
        23           S   tau(  23) = (   0.6618988   0.8959884   0.3854665  )
        24           S   tau(  24) = (   1.2478922   0.4570355   0.5570163  )
        25           S   tau(  25) = (   0.3051807   1.0835837   0.2266159  )
        26           S   tau(  26) = (   1.0064698   0.3645160   0.1903441  )
        27           S   tau(  27) = (   0.5901535   0.2137734   0.4529452  )
        28           S   tau(  28) = (   0.8587373   1.4045113   0.7341815  )
        29           S   tau(  29) = (   0.5665615   1.3980743   0.9240998  )
        30           S   tau(  30) = (   1.1043496   1.2417863   0.5098812  )
        31           S   tau(  31) = (   1.1992247   1.4033535   0.8667245  )
        32           S   tau(  32) = (   0.8893114   1.1551438   0.1394406  )
        33           S   tau(  33) = (   0.4743394   1.0179844   0.0699632  )

     number of k points=     8  Marzari-Vanderbilt smearing, width (Ry)=  0.0200
                       cart. coord. in units 2pi/alat
        k(    1) = (   0.0000000   0.0000000   0.0000000), wk =   0.2500000
        k(    2) = (   0.0000000   0.0000000  -0.4845968), wk =   0.2500000
        k(    3) = (   0.0000000  -0.4560563   0.1970385), wk =   0.2500000
        k(    4) = (   0.0000000  -0.4560563  -0.2875583), wk =   0.2500000
        k(    5) = (  -0.5000000   0.0762285   0.1835314), wk =   0.2500000
        k(    6) = (  -0.5000000   0.0762285  -0.3010653), wk =   0.2500000
        k(    7) = (  -0.5000000  -0.3798278   0.3805699), wk =   0.2500000
        k(    8) = (  -0.5000000  -0.3798278  -0.1040269), wk =   0.2500000

     Dense  grid:   577957 G-vectors     FFT dimensions: ( 100, 120, 120)

     Smooth grid:   204317 G-vectors     FFT dimensions: (  72,  80,  90)

     Estimated max dynamical RAM per process >      95.12 MB

     Estimated total dynamical RAM >       3.72 GB

     Initial potential from superposition of free atoms

     starting charge  197.98265, renormalised to  198.00000
     Starting wfcs are  187 randomized atomic wfcs

     total cpu time spent up to now is        5.5 secs

     Self-consistent Calculation

     iteration #  1     ecut=    45.00 Ry     beta= 0.70
     Davidson diagonalization with overlap
     ethr =  1.00E-02,  avg # of iterations =  2.0

     total cpu time spent up to now is       14.2 secs

     total energy              =    -772.27944647 Ry
     Harris-Foulkes estimate   =    -775.15280681 Ry
     estimated scf accuracy    <       7.59834277 Ry

     iteration #  2     ecut=    45.00 Ry     beta= 0.70
     Davidson diagonalization with overlap
     ethr =  3.84E-03,  avg # of iterations =  2.0

     total cpu time spent up to now is       22.3 secs

     total energy              =    -773.39630940 Ry
     Harris-Foulkes estimate   =    -774.10805904 Ry
     estimated scf accuracy    <       3.66127977 Ry

     iteration #  3     ecut=    45.00 Ry     beta= 0.70
     Davidson diagonalization with overlap
     ethr =  1.85E-03,  avg # of iterations =  1.2

     total cpu time spent up to now is       28.7 secs

     total energy              =    -773.73085698 Ry
     Harris-Foulkes estimate   =    -773.82975408 Ry
     estimated scf accuracy    <       0.68518369 Ry

     iteration #  4     ecut=    45.00 Ry     beta= 0.70
     Davidson diagonalization with overlap
     ethr =  3.46E-04,  avg # of iterations =  2.0

     total cpu time spent up to now is       35.5 secs

     total energy              =    -773.77296666 Ry
     Harris-Foulkes estimate   =    -773.79658991 Ry
     estimated scf accuracy    <       0.08214125 Ry

     iteration #  5     ecut=    45.00 Ry     beta= 0.70
     Davidson diagonalization with overlap
     ethr =  4.15E-05,  avg # of iterations =  5.9

     total cpu time spent up to now is       47.5 secs

     total energy              =    -773.79144966 Ry
     Harris-Foulkes estimate   =    -773.79887802 Ry
     estimated scf accuracy    <       0.03489391 Ry

     iteration #  6     ecut=    45.00 Ry     beta= 0.70
     Davidson diagonalization with overlap
     ethr =  1.76E-05,  avg # of iterations =  2.0

     total cpu time spent up to now is       54.4 secs

     total energy              =    -773.79357027 Ry
     Harris-Foulkes estimate   =    -773.79550582 Ry
     estimated scf accuracy    <       0.01402759 Ry

     iteration #  7     ecut=    45.00 Ry     beta= 0.70
     Davidson diagonalization with overlap
     ethr =  7.08E-06,  avg # of iterations =  2.5

     total cpu time spent up to now is       61.4 secs

     total energy              =    -773.79447482 Ry
     Harris-Foulkes estimate   =    -773.79488132 Ry
     estimated scf accuracy    <       0.00283747 Ry

     iteration #  8     ecut=    45.00 Ry     beta= 0.70
     Davidson diagonalization with overlap
     ethr =  1.43E-06,  avg # of iterations =  6.4

     total cpu time spent up to now is       70.7 secs

     total energy              =    -773.79459248 Ry
     Harris-Foulkes estimate   =    -773.79488718 Ry
     estimated scf accuracy    <       0.00129626 Ry

     iteration #  9     ecut=    45.00 Ry     beta= 0.70
     Davidson diagonalization with overlap
     ethr =  6.55E-07,  avg # of iterations =  2.1

     total cpu time spent up to now is       77.9 secs

     total energy              =    -773.79467089 Ry
     Harris-Foulkes estimate   =    -773.79475827 Ry
     estimated scf accuracy    <       0.00046379 Ry

     iteration # 10     ecut=    45.00 Ry     beta= 0.70
     Davidson diagonalization with overlap
     ethr =  2.34E-07,  avg # of iterations =  2.5

     total cpu time spent up to now is       86.1 secs

     total energy              =    -773.79469612 Ry
     Harris-Foulkes estimate   =    -773.79472103 Ry
     estimated scf accuracy    <       0.00016585 Ry

     iteration # 11     ecut=    45.00 Ry     beta= 0.70
     Davidson diagonalization with overlap
     ethr =  8.38E-08,  avg # of iterations =  4.2

     total cpu time spent up to now is       94.2 secs

     total energy              =    -773.79470183 Ry
     Harris-Foulkes estimate   =    -773.79471625 Ry
     estimated scf accuracy    <       0.00005747 Ry

     iteration # 12     ecut=    45.00 Ry     beta= 0.70
     Davidson diagonalization with overlap
     ethr =  2.90E-08,  avg # of iterations =  3.2

     total cpu time spent up to now is      102.1 secs

     total energy              =    -773.79470599 Ry
     Harris-Foulkes estimate   =    -773.79471026 Ry
     estimated scf accuracy    <       0.00001906 Ry

     iteration # 13     ecut=    45.00 Ry     beta= 0.70
     Davidson diagonalization with overlap
     ethr =  9.62E-09,  avg # of iterations =  2.4

     total cpu time spent up to now is      109.2 secs

     total energy              =    -773.79470748 Ry
     Harris-Foulkes estimate   =    -773.79470866 Ry
     estimated scf accuracy    <       0.00000503 Ry

     iteration # 14     ecut=    45.00 Ry     beta= 0.70
     Davidson diagonalization with overlap
     ethr =  2.54E-09,  avg # of iterations =  2.8

     total cpu time spent up to now is      116.8 secs

     total energy              =    -773.79470794 Ry
     Harris-Foulkes estimate   =    -773.79470819 Ry
     estimated scf accuracy    <       0.00000130 Ry

     iteration # 15     ecut=    45.00 Ry     beta= 0.70
     Davidson diagonalization with overlap
     ethr =  6.54E-10,  avg # of iterations =  2.9

     total cpu time spent up to now is      124.1 secs

     End of self-consistent calculation

          k = 0.0000 0.0000 0.0000 ( 25553 PWs)   bands (ev):

    -9.0987  -8.4010  -7.9198  -7.7374  -7.6218  -7.4953  -7.3872  -7.3426
    -7.1709  -7.0993  -6.9776  -6.9197  -6.8294  -6.6905  -6.6350  -6.5427
    -6.4107  -6.3726  -6.2737  -6.1127  -6.0198  -5.2409  -0.3513  -0.1963
    -0.0533   0.0738   0.1826   0.3306   0.4070   0.4804   0.5517   0.6212
     0.7110   0.7285   0.8048   0.9030   0.9538   0.9787   1.0832   1.1597
     1.3153   1.3342   1.3845   1.4494   1.5166   1.5947   1.6617   1.6905
     1.7423   1.8286   1.8729   1.9778   2.0434   2.1524   2.2361   2.2592
     2.2853   2.3472   2.4095   2.5055   2.6083   2.6142   2.6876   2.7633
     2.8315   2.9468   3.0475   3.1063   3.1717   3.1912   3.3562   3.4217
     3.4361   3.5150   3.6394   3.7168   3.8492   3.9165   4.0262   4.1270
     4.2191   4.2631   4.3551   4.5410   4.5735   4.5880   4.7020   4.7605
     4.8377   4.8721   5.0321   5.2208   5.2492   5.3294   5.4904   5.5393
     5.6586   5.7218   5.7880   5.8992   6.0166   6.1086   6.2245   6.2316
     6.3928   6.4928   6.6494   6.6925   6.7014   6.7788   6.8525   6.9218
     7.0457   7.1134   7.2281   7.3926   7.4221   7.5609   7.6748

          k = 0.0000 0.0000-0.4846 ( 25588 PWs)   bands (ev):

    -9.0831  -8.3313  -8.1055  -7.6995  -7.6831  -7.5494  -7.3659  -7.2914
    -7.0813  -7.0622  -6.9439  -6.9111  -6.8010  -6.7030  -6.6362  -6.5525
    -6.4072  -6.3405  -6.2894  -6.1483  -6.0619  -5.2518  -0.3922  -0.1446
    -0.0928   0.0348   0.1122   0.3603   0.3892   0.3992   0.4989   0.5882
     0.6832   0.7652   0.8848   0.9349   1.0104   1.0308   1.0984   1.1811
     1.2899   1.3348   1.3752   1.4231   1.4699   1.6037   1.6571   1.7653
     1.8502   1.8628   1.9616   2.0311   2.0875   2.1441   2.2049   2.2202
     2.3375   2.3467   2.4285   2.5192   2.6328   2.6482   2.7240   2.7571
     2.8241   2.9167   3.0463   3.1078   3.1877   3.2247   3.3081   3.4261
     3.4566   3.5422   3.5901   3.6476   3.6663   3.8420   3.9086   4.1611
     4.1867   4.2585   4.3244   4.4281   4.5874   4.6124   4.6368   4.7097
     4.8988   4.9575   5.0569   5.1829   5.2243   5.2819   5.3602   5.5204
     5.6158   5.8655   5.9108   6.0060   6.0915   6.1356   6.2287   6.3567
     6.4411   6.4630   6.5680   6.6861   6.7116   6.8115   6.8645   6.9371
     7.0242   7.1593   7.3187   7.3581   7.3987   7.5272   7.6402

          k = 0.0000-0.4561 0.1970 ( 25550 PWs)   bands (ev):

    -9.0749  -8.3161  -8.1772  -7.7111  -7.6293  -7.4619  -7.3581  -7.3148
    -7.1574  -7.0351  -6.9569  -6.8895  -6.8291  -6.7777  -6.6237  -6.5198
    -6.4408  -6.3398  -6.2452  -6.1238  -6.0719  -5.2362  -0.3313  -0.1724
    -0.1362   0.0484   0.1450   0.2752   0.3717   0.4268   0.4556   0.6496
     0.6816   0.8248   0.8828   0.9297   0.9759   1.0167   1.1273   1.1847
     1.2504   1.2822   1.4345   1.4790   1.5263   1.6078   1.6491   1.7607
     1.7869   1.8151   1.9271   1.9903   2.0940   2.1820   2.2148   2.2580
     2.3195   2.3944   2.4319   2.4518   2.5114   2.6276   2.7106   2.7232
     2.8363   2.9393   2.9836   3.0286   3.1504   3.2817   3.3241   3.4229
     3.4705   3.5457   3.6795   3.7175   3.7906   3.9421   3.9848   4.0699
     4.1497   4.2625   4.4390   4.4551   4.5040   4.6025   4.7124   4.7635
     4.8264   5.0065   5.0115   5.1483   5.2703   5.3118   5.3443   5.5119
     5.6413   5.8533   5.9144   5.9698   6.0189   6.0679   6.1145   6.3326
     6.4175   6.4573   6.5767   6.7210   6.7347   6.7744   6.8298   6.9285
     7.0467   7.1190   7.2196   7.3376   7.5161   7.5922   7.6772

          k = 0.0000-0.4561-0.2876 ( 25534 PWs)   bands (ev):

    -9.0648  -8.4199  -8.0269  -7.7111  -7.6179  -7.5507  -7.3654  -7.3460
    -7.1203  -7.0914  -6.9543  -6.8766  -6.8172  -6.7044  -6.5916  -6.5455
    -6.4224  -6.3143  -6.2958  -6.1784  -6.0254  -5.2511  -0.2371  -0.2166
    -0.1475  -0.0081   0.0746   0.2552   0.3692   0.4307   0.5135   0.6386
     0.6926   0.7395   0.8643   0.8778   1.0477   1.0751   1.1559   1.2069
     1.2770   1.3276   1.3453   1.4296   1.5358   1.6025   1.6909   1.7635
     1.8444   1.9346   1.9914   2.0068   2.0307   2.0801   2.1746   2.2465
     2.2747   2.4368   2.4441   2.5492   2.6061   2.6342   2.6842   2.8061
     2.8565   2.9058   2.9803   3.1643   3.1791   3.2304   3.3058   3.3690
     3.4906   3.5406   3.5757   3.6207   3.6604   3.7786   3.9114   4.0217
     4.1212   4.2311   4.3621   4.4571   4.6001   4.7024   4.8203   4.8563
     4.8791   4.9310   5.0901   5.1456   5.2272   5.2995   5.5125   5.5408
     5.5732   5.7571   5.9066   5.9581   5.9741   6.1325   6.2296   6.3038
     6.4028   6.5376   6.6307   6.6590   6.7312   6.7447   6.8361   6.9083
     7.0415   7.1312   7.1634   7.4289   7.5093   7.5273   7.5850

          k =-0.5000 0.0762 0.1835 ( 25558 PWs)   bands (ev):

    -9.0562  -8.2859  -8.1258  -7.7188  -7.6630  -7.5482  -7.4161  -7.3064
    -7.2345  -7.0420  -6.9452  -6.8682  -6.8518  -6.7221  -6.5745  -6.5555
    -6.4685  -6.2833  -6.2499  -6.1471  -5.9602  -5.2539  -0.2985  -0.2582
    -0.0271   0.0539   0.1511   0.2091   0.3091   0.4812   0.6066   0.6616
     0.7177   0.7819   0.8291   0.8724   0.9183   0.9968   1.1078   1.2266
     1.2405   1.2987   1.4060   1.4371   1.5692   1.5965   1.6653   1.6962
     1.7903   1.8855   1.9447   2.0379   2.0514   2.1288   2.2299   2.2417
     2.3230   2.3602   2.4025   2.4455   2.5612   2.6118   2.6485   2.7541
     2.7957   2.8932   3.0053   3.0253   3.1033   3.2554   3.2980   3.3536
     3.5931   3.6276   3.7017   3.7864   3.8778   3.9413   4.0395   4.1112
     4.1297   4.3476   4.3954   4.4180   4.4831   4.5651   4.5918   4.7126
     4.8297   4.9119   5.0532   5.1162   5.2528   5.3038   5.4757   5.7095
     5.7519   5.8141   5.9242   5.9978   6.0277   6.1711   6.2333   6.2998
     6.3259   6.4313   6.4995   6.6586   6.6996   6.7857   6.8032   6.8728
     7.0067   7.0667   7.3274   7.3691   7.3993   7.5150   7.6127

          k =-0.5000 0.0762-0.3011 ( 25520 PWs)   bands (ev):

    -9.0574  -8.2842  -8.0406  -7.8278  -7.7100  -7.4943  -7.4283  -7.3577
    -7.1690  -7.0461  -6.9432  -6.8761  -6.8120  -6.7704  -6.5906  -6.5331
    -6.4522  -6.2939  -6.2506  -6.0973  -5.9754  -5.2559  -0.2335  -0.1745
    -0.1017  -0.0038   0.0899   0.1190   0.3368   0.3944   0.4931   0.5360
     0.6186   0.7444   0.8283   0.9577   0.9951   1.1637   1.1972   1.2395
     1.3109   1.3898   1.4235   1.4745   1.5759   1.6463   1.6639   1.7733
     1.8018   1.8603   1.9232   2.0202   2.0640   2.1228   2.1787   2.2224
     2.2999   2.3443   2.4313   2.5122   2.5329   2.6660   2.6860   2.7521
     2.8233   2.9285   3.0109   3.0933   3.1008   3.2014   3.2531   3.3193
     3.5117   3.5183   3.5795   3.8291   3.8658   3.9402   4.0302   4.0838
     4.2146   4.3026   4.3320   4.4056   4.4918   4.5861   4.6164   4.7138
     4.8739   4.9308   5.0366   5.1126   5.1990   5.3830   5.5392   5.6775
     5.7314   5.8378   5.9530   6.0212   6.0523   6.0849   6.2282   6.2881
     6.3813   6.4997   6.5477   6.6116   6.6480   6.7614   6.8584   6.9008
     7.0188   7.0566   7.2100   7.2786   7.4254   7.5258   7.6246

          k =-0.5000-0.3798 0.3806 ( 25516 PWs)   bands (ev):

    -9.0452  -8.2163  -8.1476  -7.8977  -7.6763  -7.4816  -7.3824  -7.3242
    -7.2104  -7.0731  -6.9093  -6.8851  -6.7998  -6.7651  -6.5396  -6.5171
    -6.4746  -6.2895  -6.2535  -6.1440  -5.9832  -5.2502  -0.3645  -0.2362
    -0.1059   0.0542   0.1359   0.2883   0.3580   0.4349   0.5673   0.6192
     0.7318   0.7778   0.8559   0.8675   0.9893   1.0170   1.0483   1.1626
     1.2274   1.3645   1.4175   1.4532   1.5728   1.6152   1.6830   1.7134
     1.8098   1.8491   1.9488   2.0476   2.0628   2.0956   2.2444   2.2635
     2.3261   2.4037   2.4573   2.5035   2.5414   2.5734   2.6526   2.7031
     2.8746   2.9008   2.9491   3.0351   3.1804   3.2175   3.2753   3.3553
     3.4997   3.5929   3.6960   3.7888   3.8384   3.9669   4.0340   4.0707
     4.2123   4.2763   4.3437   4.4224   4.4551   4.5211   4.6701   4.7283
     4.8230   4.8763   5.0382   5.1077   5.3186   5.3736   5.5257   5.7081
     5.7633   5.8218   5.8771   5.9812   6.0710   6.1586   6.2023   6.2436
     6.3022   6.5088   6.5327   6.6066   6.6737   6.8212   6.8489   6.9100
     7.0188   7.0946   7.1935   7.3667   7.4436   7.5980   7.6793

          k =-0.5000-0.3798-0.1040 ( 25498 PWs)   bands (ev):

    -9.0470  -8.2500  -8.1632  -7.8126  -7.5860  -7.5307  -7.3744  -7.3316
    -7.2783  -7.0634  -6.9531  -6.8488  -6.8304  -6.8092  -6.5296  -6.5115
    -6.4822  -6.2798  -6.2279  -6.1418  -5.9585  -5.2505  -0.3695  -0.2576
    -0.1768   0.0662   0.1165   0.2955   0.3349   0.4538   0.5041   0.7163
     0.7502   0.7793   0.8734   0.9289   0.9514   1.0556   1.1764   1.1950
     1.2814   1.3379   1.4465   1.4876   1.5306   1.5967   1.6614   1.7309
     1.7756   1.8125   1.8843   1.9339   2.0563   2.1023   2.2256   2.2553
     2.2719   2.3888   2.4009   2.4721   2.5133   2.6202   2.6916   2.7109
     2.8575   2.8974   2.9294   3.0679   3.1705   3.2740   3.3981   3.4152
     3.5388   3.5510   3.7248   3.7751   3.8353   3.9737   4.0155   4.0807
     4.1374   4.2429   4.3280   4.3854   4.4928   4.5246   4.5725   4.7605
     4.8954   4.9459   5.0347   5.1386   5.3426   5.3766   5.4365   5.6405
     5.7378   5.8992   5.9508   5.9826   6.0483   6.1662   6.2205   6.2637
     6.3646   6.4475   6.5602   6.6350   6.6832   6.7562   6.8492   6.8774
     6.9381   7.0697   7.1982   7.3343   7.4551   7.5534   7.6807

     the Fermi energy is     5.9411 ev

!    total energy              =    -773.79470782 Ry
     Harris-Foulkes estimate   =    -773.79470809 Ry
     estimated scf accuracy    <       0.00000033 Ry

     The total energy is the sum of the following terms:

     one-electron contribution =    -167.51766384 Ry
     hartree contribution      =     190.33212825 Ry
     xc contribution           =    -305.53615039 Ry
     ewald contribution        =    -491.06312401 Ry
     smearing contrib. (-TS)   =      -0.00989782 Ry

     convergence has been achieved in  15 iterations

     Forces acting on atoms (cartesian axes, Ry/au):

     atom    1 type  1   force =    -0.00675149   -0.04225182    0.00979022
     atom    2 type  1   force =    -0.03973137    0.00391178    0.03178240
     atom    3 type  1   force =    -0.04721985    0.02167706   -0.02924769
     atom    4 type  1   force =    -0.01920401    0.02508191    0.04386528
     atom    5 type  1   force =     0.03799931   -0.02568457   -0.02234658
     atom    6 type  1   force =     0.06511886    0.00119048    0.02239706
     atom    7 type  1   force =    -0.00146083    0.02025731   -0.03870940
     atom    8 type  1   force =    -0.00879338   -0.02561501   -0.01274620
     atom    9 type  1   force =    -0.00980774    0.01407800   -0.00550413
     atom   10 type  1   force =     0.02366387   -0.00457943    0.01026407
     atom   11 type  1   force =    -0.00148173    0.02405208    0.03309769
     atom   12 type  2   force =     0.00604445   -0.01724332    0.00479768
     atom   13 type  2   force =    -0.00567698    0.03879643   -0.00331494
     atom   14 type  2   force =     0.02215047   -0.00441609    0.01729902
     atom   15 type  2   force =    -0.00752132    0.03106059    0.01712425
     atom   16 type  2   force =     0.00247404   -0.01529340   -0.00773862
     atom   17 type  2   force =     0.00289239   -0.02277360   -0.04904149
     atom   18 type  2   force =    -0.01614412   -0.02177089   -0.00437359
     atom   19 type  2   force =     0.00626723   -0.02485025    0.02245618
     atom   20 type  2   force =    -0.01155498    0.00486640   -0.00970621
     atom   21 type  2   force =    -0.02277195   -0.02273064   -0.01262611
     atom   22 type  2   force =    -0.01257417    0.01897278   -0.00628599
     atom   23 type  2   force =     0.01661424    0.01317375   -0.00640266
     atom   24 type  2   force =    -0.00864345   -0.00532075   -0.00203723
     atom   25 type  2   force =     0.01635231    0.01504165    0.01151802
     atom   26 type  2   force =     0.01975020   -0.00141137   -0.00596454
     atom   27 type  2   force =    -0.00806577    0.02678414    0.00812337
     atom   28 type  2   force =     0.00579841   -0.03977589    0.00755596
     atom   29 type  2   force =    -0.00759125    0.00392269    0.01258279
     atom   30 type  2   force =     0.01453315   -0.01256934   -0.00224707
     atom   31 type  2   force =     0.00459459    0.01798632   -0.00213922
     atom   32 type  2   force =    -0.00158635   -0.00696074   -0.02097599
     atom   33 type  2   force =    -0.00767279    0.01239374   -0.01124632

     Total force =     0.202449     Total SCF correction =     0.001090
 
     init_run     :      4.66s CPU      4.82s WALL (       1 calls)
     electrons    :    115.94s CPU    118.55s WALL (       1 calls)
     forces       :      2.58s CPU      2.65s WALL (       1 calls)

     Called by init_run:
     wfcinit      :      3.17s CPU      3.25s WALL (       1 calls)
     potinit      :      0.39s CPU      0.40s WALL (       1 calls)
     hinit0       :      0.54s CPU      0.56s WALL (       1 calls)

     Called by electrons:
     c_bands      :     92.50s CPU     93.65s WALL (      15 calls)
     sum_band     :     18.02s CPU     19.05s WALL (      15 calls)
     v_of_rho     :      0.95s CPU      0.99s WALL (      16 calls)
     newd         :      3.42s CPU      3.78s WALL (      16 calls)
     mix_rho      :      1.15s CPU      1.21s WALL (      15 calls)

     Called by c_bands:
     init_us_2    :      2.21s CPU      2.23s WALL (     256 calls)
     cegterg      :     85.86s CPU     86.97s WALL (     120 calls)

     Called by sum_band:
     sum_band:bec :      0.18s CPU      0.18s WALL (     120 calls)
     addusdens    :      5.27s CPU      6.05s WALL (      15 calls)

     Called by *egterg:
     h_psi        :     50.96s CPU     51.79s WALL (     481 calls)
     s_psi        :      8.31s CPU      8.32s WALL (     481 calls)
     g_psi        :      0.20s CPU      0.20s WALL (     353 calls)
     cdiaghg      :     15.47s CPU     15.71s WALL (     473 calls)

     Called by h_psi:
     h_psi:pot    :     50.45s CPU     51.28s WALL (     481 calls)
     h_psi:calbec :      9.98s CPU     10.25s WALL (     481 calls)
     vloc_psi     :     31.81s CPU     32.37s WALL (     481 calls)
     add_vuspsi   :      8.64s CPU      8.66s WALL (     481 calls)

     General routines
     calbec       :     14.94s CPU     15.36s WALL (     633 calls)
     fft          :      0.75s CPU      0.81s WALL (     217 calls)
     ffts         :      0.57s CPU      0.61s WALL (     493 calls)
     fftw         :     35.42s CPU     36.03s WALL (   81736 calls)
     interpolate  :      0.08s CPU      0.09s WALL (      16 calls)
 
     Parallel routines
     fft_scatt_xy :      3.52s CPU      3.59s WALL (   82446 calls)
     fft_scatt_yz :     15.45s CPU     15.79s WALL (   82446 calls)
 
     PWSCF        :   2m 3.87s CPU   2m 6.81s WALL

 
   This run was terminated on:  23:30:53  23Dec2021            

=------------------------------------------------------------------------------=
   JOB DONE.
=------------------------------------------------------------------------------=
