
     Program PWSCF v.6.4 starts on 23Dec2021 at 23:13:14 

     This program is part of the open-source Quantum ESPRESSO suite
     for quantum simulation of materials; please cite
         "P. Giannozzi et al., J. Phys.:Condens. Matter 21 395502 (2009);
         "P. Giannozzi et al., J. Phys.:Condens. Matter 29 465901 (2017);
          URL http://www.quantum-espresso.org", 
     in publications or presentations arising from this work. More details at
     http://www.quantum-espresso.org/quote

     Parallel version (MPI), running on    40 processors

     MPI processes distributed on     1 nodes
     R & G space division:  proc/nbgrp/npool/nimage =      40
     Waiting for input...
     Reading input from standard input
Warning: card    &IONS ignored
Warning: card      ION_DYNAMICS = 'BFGS' ignored
Warning: card   / ignored
Warning: card    &CELL ignored
Warning: card      CELL_DYNAMICS = 'BFGS', ignored
Warning: card    / ignored

     Current dimensions of program PWSCF are:
     Max number of different atomic species (ntypx) = 10
     Max number of k-points (npk) =  40000
     Max angular momentum in pseudopotentials (lmaxx) =  3

     Subspace diagonalization in iterative solution of the eigenvalue problem:
     one sub-group per band group will be used
     scalapack distributed-memory algorithm (size of sub-group:  4*  4 procs)

 
     Parallelization info
     --------------------
     sticks:   dense  smooth     PW     G-vecs:    dense   smooth      PW
     Min         114      57     15                 9936     3513     496
     Max         115      58     16                 9943     3518     505
     Sum        4575    2291    621               397557   140613   19987
 


     bravais-lattice index     =            0
     lattice parameter (alat)  =      12.3177  a.u.
     unit-cell volume          =    3445.9282 (a.u.)^3
     number of atoms/cell      =           24
     number of atomic types    =            2
     number of electrons       =       144.00
     number of Kohn-Sham states=           86
     kinetic-energy cutoff     =      45.0000  Ry
     charge density cutoff     =     360.0000  Ry
     convergence threshold     =      1.0E-06
     mixing beta               =       0.7000
     number of iterations used =            8  local-TF  mixing
     Exchange-correlation      = SLA PW GGX GGC ( 1  4  2  2 0 0)

     celldm(1)=  12.317721  celldm(2)=   0.000000  celldm(3)=   0.000000
     celldm(4)=   0.000000  celldm(5)=   0.000000  celldm(6)=   0.000000

     crystal axes: (cart. coord. in units of alat)
               a(1) = (   1.000000   0.000000   0.000000 )  
               a(2) = (  -0.261520   1.051509   0.000000 )  
               a(3) = (   0.009658  -0.155042   1.753485 )  

     reciprocal axes: (cart. coord. in units 2 pi/alat)
               b(1) = (  1.000000  0.248709  0.016483 )  
               b(2) = (  0.000000  0.951014  0.084088 )  
               b(3) = (  0.000000  0.000000  0.570293 )  


     PseudoPot. # 1 for Mo read from file:
     ~/pseudo/Mo.pw91-n-van.UPF
     MD5 check sum: Not computed, couldn't open file
     Pseudo is Ultrasoft + core correction, Zval =  6.0
     Generated by new atomic code, or converted to UPF format
     Using radial grid of  965 points,  3 beta functions with: 
                l(1) =   1
                l(2) =   2
                l(3) =   2
     Q(r) pseudized with  8 coefficients,  rinner =    1.000   1.000   1.000
                                                       1.200   1.200

     PseudoPot. # 2 for S  read from file:
     ~/pseudo/S.pw91-van_ak.UPF
     MD5 check sum: Not computed, couldn't open file
     Pseudo is Ultrasoft, Zval =  6.0
     Generated by new atomic code, or converted to UPF format
     Using radial grid of  811 points,  6 beta functions with: 
                l(1) =   0
                l(2) =   0
                l(3) =   1
                l(4) =   1
                l(5) =   2
                l(6) =   2
     Q(r) pseudized with  8 coefficients,  rinner =    1.100   1.100   1.100
                                                       1.100   1.100

     atomic species   valence    mass     pseudopotential
        Mo             6.00    95.50000     Mo( 1.00)
        S              6.00    32.06500     S ( 1.00)

     No symmetry found



   Cartesian axes

     site n.     atom                  positions (alat units)
         1           Mo  tau(   1) = (   0.7149947   0.5021377   1.6382143  )
         2           Mo  tau(   2) = (   0.7413646   0.8354390   1.0665237  )
         3           Mo  tau(   3) = (   0.7052900   0.4075023   0.2487583  )
         4           Mo  tau(   4) = (   0.4930336   0.1066825   1.6636312  )
         5           Mo  tau(   5) = (  -0.0226049   0.6316296   0.7554991  )
         6           Mo  tau(   6) = (   0.9409170   0.1119973   1.6623107  )
         7           Mo  tau(   7) = (   0.2110077   0.8377157   1.0671765  )
         8           Mo  tau(   8) = (   0.4612047   0.6392251   0.7598390  )
         9           S   tau(   9) = (   0.2144123   0.9052150   0.6889125  )
        10           S   tau(  10) = (  -0.0223600   0.5487040   1.1026045  )
        11           S   tau(  11) = (   0.7147578   0.3981447   0.6213015  )
        12           S   tau(  12) = (   0.4754875   0.5713278   1.1078051  )
        13           S   tau(  13) = (   0.2174802   0.2333732   1.4351170  )
        14           S   tau(  14) = (   0.7142087   0.2408600   1.3931521  )
        15           S   tau(  15) = (   0.2242686   0.3949677   0.6181545  )
        16           S   tau(  16) = (   0.2358631   0.0725786   1.1103608  )
        17           S   tau(  17) = (   0.2056280   0.1058180   0.1133082  )
        18           S   tau(  18) = (  -0.0263544   0.5906999   0.1082479  )
        19           S   tau(  19) = (   0.7226687   0.8889003   0.6870823  )
        20           S   tau(  20) = (   0.7409586   0.0534671   1.0349915  )
        21           S   tau(  21) = (   0.4369281   0.5939087   0.1101036  )
        22           S   tau(  22) = (   0.2155476   0.8557100   1.4402150  )
        23           S   tau(  23) = (   0.7116352   0.0653399   0.1347955  )
        24           S   tau(  24) = (   0.7181481   0.8306595   1.4566903  )

     number of k points=    10  Marzari-Vanderbilt smearing, width (Ry)=  0.0200
                       cart. coord. in units 2pi/alat
        k(    1) = (   0.0000000   0.0000000   0.0000000), wk =   0.1111111
        k(    2) = (   0.0000000   0.0000000  -0.2851465), wk =   0.1111111
        k(    3) = (   0.0000000   0.3170047   0.0280294), wk =   0.2222222
        k(    4) = (   0.0000000   0.3170047  -0.2571171), wk =   0.2222222
        k(    5) = (   0.3333333   0.0829031   0.0054943), wk =   0.2222222
        k(    6) = (   0.3333333   0.0829031  -0.2796522), wk =   0.2222222
        k(    7) = (   0.3333333   0.3999078   0.0335237), wk =   0.2222222
        k(    8) = (   0.3333333   0.3999078  -0.2516228), wk =   0.2222222
        k(    9) = (   0.3333333  -0.2341016  -0.0225351), wk =   0.2222222
        k(   10) = (   0.3333333  -0.2341016  -0.3076816), wk =   0.2222222

     Dense  grid:   397557 G-vectors     FFT dimensions: (  75,  81, 135)

     Smooth grid:   140613 G-vectors     FFT dimensions: (  54,  60,  96)

     Estimated max dynamical RAM per process >      59.99 MB

     Estimated total dynamical RAM >       2.34 GB

     Initial potential from superposition of free atoms

     starting charge  143.98738, renormalised to  144.00000
     Starting wfcs are  136 randomized atomic wfcs

     total cpu time spent up to now is        3.3 secs

     Self-consistent Calculation

     iteration #  1     ecut=    45.00 Ry     beta= 0.70
     Davidson diagonalization with overlap
     ethr =  1.00E-02,  avg # of iterations =  2.0

     total cpu time spent up to now is        7.7 secs

     total energy              =    -562.00230638 Ry
     Harris-Foulkes estimate   =    -563.85254786 Ry
     estimated scf accuracy    <       5.00570492 Ry

     iteration #  2     ecut=    45.00 Ry     beta= 0.70
     Davidson diagonalization with overlap
     ethr =  3.48E-03,  avg # of iterations =  2.0

     total cpu time spent up to now is       11.8 secs

     total energy              =    -562.83703504 Ry
     Harris-Foulkes estimate   =    -563.11245161 Ry
     estimated scf accuracy    <       1.40980153 Ry

     iteration #  3     ecut=    45.00 Ry     beta= 0.70
     Davidson diagonalization with overlap
     ethr =  9.79E-04,  avg # of iterations =  1.5

     total cpu time spent up to now is       15.1 secs

     total energy              =    -562.93561066 Ry
     Harris-Foulkes estimate   =    -562.96719351 Ry
     estimated scf accuracy    <       0.17229889 Ry

     iteration #  4     ecut=    45.00 Ry     beta= 0.70
     Davidson diagonalization with overlap
     ethr =  1.20E-04,  avg # of iterations =  3.7

     total cpu time spent up to now is       20.1 secs

     total energy              =    -562.95582249 Ry
     Harris-Foulkes estimate   =    -562.97278737 Ry
     estimated scf accuracy    <       0.05783653 Ry

     iteration #  5     ecut=    45.00 Ry     beta= 0.70
     Davidson diagonalization with overlap
     ethr =  4.02E-05,  avg # of iterations =  2.1

     total cpu time spent up to now is       23.7 secs

     total energy              =    -562.96154614 Ry
     Harris-Foulkes estimate   =    -562.96334885 Ry
     estimated scf accuracy    <       0.01619215 Ry

     iteration #  6     ecut=    45.00 Ry     beta= 0.70
     Davidson diagonalization with overlap
     c_bands:  1 eigenvalues not converged
     c_bands:  2 eigenvalues not converged
     ethr =  1.12E-05,  avg # of iterations = 10.4

     total cpu time spent up to now is       29.9 secs

     total energy              =    -562.96253052 Ry
     Harris-Foulkes estimate   =    -562.96285792 Ry
     estimated scf accuracy    <       0.00200538 Ry

     iteration #  7     ecut=    45.00 Ry     beta= 0.70
     Davidson diagonalization with overlap
     ethr =  1.39E-06,  avg # of iterations =  8.7

     total cpu time spent up to now is       38.3 secs

     total energy              =    -562.96286417 Ry
     Harris-Foulkes estimate   =    -562.96312222 Ry
     estimated scf accuracy    <       0.00130276 Ry

     iteration #  8     ecut=    45.00 Ry     beta= 0.70
     Davidson diagonalization with overlap
     ethr =  9.05E-07,  avg # of iterations =  1.4

     total cpu time spent up to now is       41.5 secs

     total energy              =    -562.96294252 Ry
     Harris-Foulkes estimate   =    -562.96297938 Ry
     estimated scf accuracy    <       0.00029636 Ry

     iteration #  9     ecut=    45.00 Ry     beta= 0.70
     Davidson diagonalization with overlap
     ethr =  2.06E-07,  avg # of iterations =  2.2

     total cpu time spent up to now is       45.2 secs

     total energy              =    -562.96297410 Ry
     Harris-Foulkes estimate   =    -562.96298151 Ry
     estimated scf accuracy    <       0.00006184 Ry

     iteration # 10     ecut=    45.00 Ry     beta= 0.70
     Davidson diagonalization with overlap
     ethr =  4.29E-08,  avg # of iterations =  3.2

     total cpu time spent up to now is       49.8 secs

     total energy              =    -562.96298236 Ry
     Harris-Foulkes estimate   =    -562.96298628 Ry
     estimated scf accuracy    <       0.00001383 Ry

     iteration # 11     ecut=    45.00 Ry     beta= 0.70
     Davidson diagonalization with overlap
     ethr =  9.60E-09,  avg # of iterations =  2.0

     total cpu time spent up to now is       53.4 secs

     total energy              =    -562.96298424 Ry
     Harris-Foulkes estimate   =    -562.96298451 Ry
     estimated scf accuracy    <       0.00000228 Ry

     iteration # 12     ecut=    45.00 Ry     beta= 0.70
     Davidson diagonalization with overlap
     ethr =  1.58E-09,  avg # of iterations =  3.3

     total cpu time spent up to now is       58.0 secs

     total energy              =    -562.96298460 Ry
     Harris-Foulkes estimate   =    -562.96298472 Ry
     estimated scf accuracy    <       0.00000132 Ry

     iteration # 13     ecut=    45.00 Ry     beta= 0.70
     Davidson diagonalization with overlap
     ethr =  9.20E-10,  avg # of iterations =  1.0

     total cpu time spent up to now is       61.1 secs

     End of self-consistent calculation

          k = 0.0000 0.0000 0.0000 ( 17583 PWs)   bands (ev):

    -7.9688  -7.2747  -7.1557  -6.9680  -6.7429  -6.6500  -6.5317  -6.3372
    -6.3067  -6.2019  -6.0983  -5.7646  -5.5601  -5.3775  -5.1996  -5.1593
     0.2917   0.5133   0.5957   0.7383   0.8027   0.8865   1.0609   1.0792
     1.3943   1.5800   1.6299   1.8356   1.9486   2.0718   2.1456   2.2184
     2.2506   2.3550   2.5103   2.6004   2.6564   2.6813   2.8071   2.8676
     2.9396   3.0096   3.0498   3.0674   3.2136   3.2777   3.3370   3.4278
     3.4427   3.6645   3.8966   4.0582   4.1377   4.2955   4.4354   4.5461
     4.7577   4.8027   4.9099   4.9725   5.1122   5.1722   5.2683   5.3767
     5.5841   5.6374   5.7735   5.8096   5.8689   6.0491   6.1258   6.2967
     6.3806   6.7422   6.8309   7.0427   7.2864   7.4902   7.5963   7.6913
     7.9102   8.0851   8.2203   8.2479   8.4304   8.4742

          k = 0.0000 0.0000-0.2851 ( 17574 PWs)   bands (ev):

    -7.9534  -7.3849  -7.0529  -6.9619  -6.7440  -6.6512  -6.5297  -6.3392
    -6.3082  -6.2005  -6.1097  -5.7590  -5.5667  -5.3774  -5.1957  -5.1629
     0.3146   0.5814   0.5963   0.6329   0.7986   0.8856   0.9712   1.1976
     1.3367   1.5057   1.6818   1.8321   1.9707   2.0995   2.1579   2.2406
     2.3083   2.3938   2.5339   2.5737   2.6261   2.7063   2.8244   2.8539
     2.9288   2.9711   3.0291   3.1005   3.1872   3.2583   3.3113   3.3874
     3.4456   3.7011   3.9358   4.0530   4.1005   4.2475   4.3819   4.6665
     4.7004   4.7959   4.9009   5.0386   5.1070   5.1842   5.3069   5.3662
     5.5877   5.6800   5.6839   5.7901   5.9113   6.0060   6.1742   6.2436
     6.4099   6.6863   6.7788   7.1284   7.3723   7.5926   7.6712   7.7441
     7.8405   7.9023   8.1815   8.2477   8.4246   8.4636

          k = 0.0000 0.3170 0.0280 ( 17575 PWs)   bands (ev):

    -7.8277  -7.3021  -7.1482  -6.9913  -6.8019  -6.6682  -6.5690  -6.4079
    -6.3223  -6.2001  -6.1006  -5.7245  -5.5839  -5.3810  -5.2014  -5.1473
     0.4701   0.5839   0.6391   0.7184   0.8374   1.0379   1.0898   1.2314
     1.4478   1.5393   1.6928   1.8547   1.9756   2.1083   2.1366   2.1867
     2.2697   2.3037   2.4482   2.5218   2.6469   2.6902   2.7445   2.8433
     2.8973   2.9992   3.0879   3.1254   3.2060   3.2495   3.3099   3.3839
     3.4319   3.5264   3.7348   3.9738   4.1081   4.1934   4.2989   4.4037
     4.6121   4.7905   4.9571   5.0063   5.1141   5.2050   5.2623   5.4321
     5.5889   5.6216   5.7037   5.8428   5.9022   6.0486   6.2452   6.2594
     6.3861   6.7481   6.8679   7.2098   7.3221   7.4382   7.5316   7.6567
     7.8678   7.9213   8.1082   8.2379   8.3839   8.4691

          k = 0.0000 0.3170-0.2571 ( 17558 PWs)   bands (ev):

    -7.8218  -7.3149  -7.1547  -6.9804  -6.7985  -6.6754  -6.5898  -6.3730
    -6.3215  -6.2002  -6.0991  -5.7333  -5.5813  -5.3811  -5.2008  -5.1515
     0.5078   0.5925   0.6314   0.7430   0.8293   0.9503   1.1110   1.3293
     1.3930   1.4782   1.6971   1.8521   1.9429   1.9777   2.0786   2.2068
     2.3086   2.4211   2.4502   2.5819   2.6307   2.6862   2.7907   2.8527
     2.9024   2.9917   3.0667   3.1058   3.1968   3.2764   3.3265   3.3928
     3.4235   3.5368   3.7766   3.9643   4.1493   4.1923   4.2709   4.4284
     4.6609   4.7966   4.8749   5.0099   5.1074   5.2018   5.3142   5.4011
     5.5127   5.6279   5.6497   5.7976   5.8779   6.1046   6.2585   6.3236
     6.4546   6.5926   6.7814   7.2136   7.3000   7.4539   7.6089   7.6706
     7.8789   7.9202   8.1562   8.2451   8.3766   8.4714

          k = 0.3333 0.0829 0.0055 ( 17565 PWs)   bands (ev):

    -7.7344  -7.2199  -7.1298  -6.9515  -6.8140  -6.6386  -6.5398  -6.4717
    -6.3928  -6.2585  -6.0385  -5.7422  -5.6352  -5.4944  -5.3357  -5.1658
     0.5295   0.7769   0.9197   1.0258   1.1607   1.2425   1.3500   1.4021
     1.5440   1.6338   1.6877   1.8366   1.9016   1.9937   2.0699   2.1955
     2.2780   2.3130   2.3708   2.4715   2.5285   2.5669   2.6150   2.7066
     2.7660   2.8481   3.0063   3.0851   3.1648   3.2391   3.3017   3.5463
     3.6275   3.7661   3.8182   3.8887   3.9830   4.1134   4.2085   4.2840
     4.3393   4.6373   4.7053   4.8461   4.8941   4.9842   5.0998   5.3816
     5.5295   5.5898   5.6668   5.9115   5.9853   6.1543   6.2436   6.2951
     6.4944   6.6088   6.7706   7.1105   7.1538   7.4031   7.5481   7.6847
     7.7985   7.8856   8.1262   8.1783   8.3614   8.4086

          k = 0.3333 0.0829-0.2797 ( 17580 PWs)   bands (ev):

    -7.7229  -7.2129  -7.1931  -6.9257  -6.7922  -6.6378  -6.5414  -6.4718
    -6.3869  -6.2544  -6.0494  -5.7375  -5.6461  -5.4864  -5.3305  -5.1729
     0.5484   0.7683   0.9059   1.0395   1.1520   1.1712   1.3371   1.4128
     1.4883   1.6471   1.7599   1.8708   1.9034   1.9943   2.0883   2.1961
     2.2609   2.3314   2.3697   2.4393   2.5184   2.5614   2.6766   2.7244
     2.7393   2.8960   2.9763   3.0796   3.1414   3.3125   3.3746   3.5796
     3.6076   3.7110   3.7981   3.8838   3.9529   4.0444   4.1651   4.3293
     4.4555   4.4965   4.6566   4.7750   4.8968   5.0151   5.0760   5.4375
     5.5601   5.6372   5.7157   5.8803   5.9721   6.1225   6.2089   6.2970
     6.4819   6.6659   6.8927   6.9819   7.2449   7.3979   7.5981   7.6910
     7.8032   7.8790   8.0467   8.2137   8.2869   8.4201

          k = 0.3333 0.3999 0.0335 ( 17564 PWs)   bands (ev):

    -7.5944  -7.2322  -7.1154  -7.0083  -6.8148  -6.6692  -6.5514  -6.5204
    -6.4251  -6.2859  -6.0434  -5.7343  -5.6471  -5.4879  -5.3406  -5.1555
     0.6874   0.8060   0.9399   1.0697   1.1793   1.3236   1.4022   1.4597
     1.6186   1.6723   1.7354   1.8296   1.9248   2.0248   2.0651   2.1358
     2.1844   2.2872   2.3756   2.3975   2.5092   2.5848   2.6325   2.6974
     2.7644   2.8223   2.9027   3.0458   3.1553   3.3162   3.3685   3.5092
     3.5225   3.6669   3.7899   3.8514   3.9427   4.0120   4.1980   4.2189
     4.3960   4.4525   4.6141   4.8034   4.9466   5.0434   5.1554   5.3921
     5.4545   5.6251   5.6991   5.8902   5.9993   6.1221   6.3410   6.4358
     6.5549   6.7129   6.8383   7.0563   7.2266   7.3541   7.5642   7.6136
     7.6881   7.8899   7.9842   8.1732   8.3126   8.3721

          k = 0.3333 0.3999-0.2516 ( 17590 PWs)   bands (ev):

    -7.5937  -7.2200  -7.1035  -7.0357  -6.8219  -6.6693  -6.5758  -6.5073
    -6.4088  -6.2809  -6.0406  -5.7420  -5.6403  -5.4875  -5.3338  -5.1642
     0.6874   0.7780   1.0102   1.0654   1.1848   1.3322   1.3862   1.4826
     1.5776   1.6666   1.7408   1.8144   1.8711   1.9208   2.0641   2.1744
     2.2054   2.2852   2.3626   2.4247   2.4594   2.5565   2.6284   2.7233
     2.7787   2.8733   2.9991   3.0512   3.1456   3.2501   3.4528   3.5473
     3.6015   3.6724   3.7345   3.8292   3.9768   4.0080   4.1981   4.2320
     4.3837   4.4471   4.6223   4.7811   4.9150   5.0158   5.1421   5.3687
     5.4609   5.5939   5.6889   5.8191   6.0717   6.1375   6.2900   6.4696
     6.5268   6.7161   6.8642   7.0740   7.2368   7.3308   7.4961   7.6808
     7.8183   7.9215   7.9434   8.0568   8.3189   8.3731

          k = 0.3333-0.2341-0.0225 ( 17556 PWs)   bands (ev):

    -7.6773  -7.1868  -7.1178  -6.9765  -6.7682  -6.6782  -6.5798  -6.5256
    -6.3543  -6.3063  -6.0537  -5.7330  -5.6402  -5.4907  -5.3618  -5.1536
     0.6470   0.7242   0.9357   1.0286   1.1454   1.2262   1.2816   1.4070
     1.5506   1.6239   1.6770   1.8034   1.9199   1.9948   2.0934   2.2208
     2.2616   2.3463   2.4271   2.5108   2.5670   2.6348   2.6617   2.7105
     2.8120   2.8705   2.9729   3.0956   3.1385   3.2859   3.3919   3.4935
     3.5957   3.6527   3.7633   3.8349   3.9547   4.0206   4.2112   4.3020
     4.4706   4.5118   4.6599   4.8701   4.9510   5.0436   5.1328   5.3343
     5.4805   5.6151   5.6528   5.8122   6.0023   6.2328   6.2981   6.4348
     6.5159   6.6187   6.8559   7.1020   7.1752   7.2819   7.5386   7.6560
     7.7998   7.9282   8.0608   8.1480   8.3121   8.3707

          k = 0.3333-0.2341-0.3077 ( 17556 PWs)   bands (ev):

    -7.6698  -7.1831  -7.1557  -6.9577  -6.7689  -6.6649  -6.5903  -6.5193
    -6.3609  -6.2966  -6.0558  -5.7316  -5.6406  -5.4983  -5.3502  -5.1599
     0.6789   0.7554   0.9159   1.0422   1.1255   1.2162   1.3268   1.3445
     1.4965   1.5549   1.7386   1.8038   1.8889   1.9530   2.1214   2.1996
     2.3081   2.3665   2.4027   2.5160   2.5494   2.6022   2.6769   2.7447
     2.7805   2.9277   2.9802   3.1144   3.2018   3.2774   3.3927   3.4963
     3.6355   3.6697   3.7688   3.8624   3.9641   4.0081   4.2224   4.3050
     4.4216   4.5224   4.6467   4.7676   4.9393   5.0225   5.0755   5.3475
     5.5415   5.6760   5.6865   5.8700   5.9668   6.1710   6.3509   6.3939
     6.5049   6.6483   6.7465   7.0157   7.1803   7.3926   7.4679   7.6424
     7.8108   8.0283   8.0841   8.1413   8.3145   8.3871

     the Fermi energy is     6.4396 ev

!    total energy              =    -562.96298430 Ry
     Harris-Foulkes estimate   =    -562.96298467 Ry
     estimated scf accuracy    <       0.00000043 Ry

     The total energy is the sum of the following terms:

     one-electron contribution =     -35.62137874 Ry
     hartree contribution      =      98.74393129 Ry
     xc contribution           =    -222.31928061 Ry
     ewald contribution        =    -403.76619362 Ry
     smearing contrib. (-TS)   =      -0.00006262 Ry

     convergence has been achieved in  13 iterations

     Forces acting on atoms (cartesian axes, Ry/au):

     atom    1 type  1   force =     0.00028904    0.01426075   -0.01854121
     atom    2 type  1   force =    -0.00668556    0.02837804   -0.00379265
     atom    3 type  1   force =     0.00759911   -0.02601009    0.02877594
     atom    4 type  1   force =    -0.02262030   -0.02650263   -0.02211196
     atom    5 type  1   force =     0.02384895   -0.01362571   -0.01754803
     atom    6 type  1   force =     0.00661937   -0.00774692    0.00287827
     atom    7 type  1   force =    -0.00331950    0.04282475    0.00704932
     atom    8 type  1   force =    -0.03087609   -0.02515784   -0.01618863
     atom    9 type  2   force =     0.00402107    0.00712228    0.01655422
     atom   10 type  2   force =    -0.00044545   -0.01020200    0.00809684
     atom   11 type  2   force =     0.00921493   -0.01692888   -0.01508306
     atom   12 type  2   force =    -0.00225407   -0.00344996   -0.00730991
     atom   13 type  2   force =     0.00263342    0.00083733   -0.01390002
     atom   14 type  2   force =     0.00587874   -0.00669187    0.01660188
     atom   15 type  2   force =    -0.00322442    0.00598044    0.00862726
     atom   16 type  2   force =    -0.01108902    0.01063032    0.00534667
     atom   17 type  2   force =     0.00572423    0.01799173   -0.00757088
     atom   18 type  2   force =     0.03711438    0.00254000   -0.01041299
     atom   19 type  2   force =     0.00130907    0.02404610   -0.00087715
     atom   20 type  2   force =    -0.00145428   -0.00795563    0.02500715
     atom   21 type  2   force =    -0.02527725   -0.00232638   -0.01715488
     atom   22 type  2   force =     0.00937071   -0.01453169    0.01752555
     atom   23 type  2   force =    -0.00652062    0.01576501    0.00823512
     atom   24 type  2   force =     0.00014354   -0.00924713    0.00579315

     Total force =     0.130061     Total SCF correction =     0.001288
 
     init_run     :      2.51s CPU      2.60s WALL (       1 calls)
     electrons    :     56.72s CPU     57.81s WALL (       1 calls)
     forces       :      1.27s CPU      1.29s WALL (       1 calls)

     Called by init_run:
     wfcinit      :      1.60s CPU      1.65s WALL (       1 calls)
     potinit      :      0.26s CPU      0.26s WALL (       1 calls)
     hinit0       :      0.36s CPU      0.37s WALL (       1 calls)

     Called by electrons:
     c_bands      :     46.81s CPU     47.62s WALL (      13 calls)
     sum_band     :      7.55s CPU      7.77s WALL (      13 calls)
     v_of_rho     :      0.41s CPU      0.44s WALL (      14 calls)
     newd         :      1.66s CPU      1.69s WALL (      14 calls)
     mix_rho      :      0.35s CPU      0.36s WALL (      13 calls)

     Called by c_bands:
     init_us_2    :      0.93s CPU      0.97s WALL (     280 calls)
     cegterg      :     43.47s CPU     44.23s WALL (     130 calls)

     Called by sum_band:
     sum_band:bec :      0.09s CPU      0.09s WALL (     130 calls)
     addusdens    :      2.35s CPU      2.39s WALL (      13 calls)

     Called by *egterg:
     h_psi        :     22.05s CPU     22.63s WALL (     575 calls)
     s_psi        :      3.28s CPU      3.29s WALL (     575 calls)
     g_psi        :      0.08s CPU      0.08s WALL (     435 calls)
     cdiaghg      :     12.89s CPU     13.04s WALL (     565 calls)

     Called by h_psi:
     h_psi:pot    :     21.95s CPU     22.53s WALL (     575 calls)
     h_psi:calbec :      3.60s CPU      3.72s WALL (     575 calls)
     vloc_psi     :     15.10s CPU     15.55s WALL (     575 calls)
     add_vuspsi   :      3.24s CPU      3.26s WALL (     575 calls)

     General routines
     calbec       :      5.22s CPU      5.41s WALL (     745 calls)
     fft          :      0.34s CPU      0.37s WALL (     191 calls)
     ffts         :      0.18s CPU      0.19s WALL (     307 calls)
     fftw         :     17.00s CPU     17.51s WALL (   67958 calls)
     interpolate  :      0.04s CPU      0.04s WALL (      14 calls)
 
     Parallel routines
     fft_scatt_xy :      1.76s CPU      1.81s WALL (   68456 calls)
     fft_scatt_yz :      8.53s CPU      8.81s WALL (   68456 calls)
 
     PWSCF        :   1m 1.22s CPU   1m 2.48s WALL

 
   This run was terminated on:  23:14:17  23Dec2021            

=------------------------------------------------------------------------------=
   JOB DONE.
=------------------------------------------------------------------------------=
