
     Program PWSCF v.6.4 starts on 24Dec2021 at 23:11:32 

     This program is part of the open-source Quantum ESPRESSO suite
     for quantum simulation of materials; please cite
         "P. Giannozzi et al., J. Phys.:Condens. Matter 21 395502 (2009);
         "P. Giannozzi et al., J. Phys.:Condens. Matter 29 465901 (2017);
          URL http://www.quantum-espresso.org", 
     in publications or presentations arising from this work. More details at
     http://www.quantum-espresso.org/quote

     Parallel version (MPI), running on    40 processors

     MPI processes distributed on     1 nodes
     R & G space division:  proc/nbgrp/npool/nimage =      40
     Waiting for input...
     Reading input from standard input
Warning: card    &IONS ignored
Warning: card      ION_DYNAMICS = 'BFGS' ignored
Warning: card   / ignored
Warning: card    &CELL ignored
Warning: card      CELL_DYNAMICS = 'BFGS', ignored
Warning: card    / ignored

     Current dimensions of program PWSCF are:
     Max number of different atomic species (ntypx) = 10
     Max number of k-points (npk) =  40000
     Max angular momentum in pseudopotentials (lmaxx) =  3

     Subspace diagonalization in iterative solution of the eigenvalue problem:
     one sub-group per band group will be used
     scalapack distributed-memory algorithm (size of sub-group:  4*  4 procs)

 
     Parallelization info
     --------------------
     sticks:   dense  smooth     PW     G-vecs:    dense   smooth      PW
     Min         258     129     34                20242     7155     995
     Max         259     130     35                20244     7157    1001
     Sum       10335    5167   1383               809711   286245   39895
 


     bravais-lattice index     =            0
     lattice parameter (alat)  =      18.6649  a.u.
     unit-cell volume          =    7019.0497 (a.u.)^3
     number of atoms/cell      =           48
     number of atomic types    =            2
     number of electrons       =       288.00
     number of Kohn-Sham states=          173
     kinetic-energy cutoff     =      45.0000  Ry
     charge density cutoff     =     360.0000  Ry
     convergence threshold     =      1.0E-06
     mixing beta               =       0.7000
     number of iterations used =            8  local-TF  mixing
     Exchange-correlation      = SLA PW GGX GGC ( 1  4  2  2 0 0)

     celldm(1)=  18.664869  celldm(2)=   0.000000  celldm(3)=   0.000000
     celldm(4)=   0.000000  celldm(5)=   0.000000  celldm(6)=   0.000000

     crystal axes: (cart. coord. in units of alat)
               a(1) = (   1.000000   0.000000   0.000000 )  
               a(2) = (   0.215924   1.035180   0.000000 )  
               a(3) = (   0.123459   0.089452   1.042767 )  

     reciprocal axes: (cart. coord. in units 2 pi/alat)
               b(1) = (  1.000000 -0.208586 -0.100503 )  
               b(2) = (  0.000000  0.966015 -0.082868 )  
               b(3) = (  0.000000  0.000000  0.958987 )  


     PseudoPot. # 1 for Mo read from file:
     ~/pseudo/Mo.pw91-n-van.UPF
     MD5 check sum: Not computed, couldn't open file
     Pseudo is Ultrasoft + core correction, Zval =  6.0
     Generated by new atomic code, or converted to UPF format
     Using radial grid of  965 points,  3 beta functions with: 
                l(1) =   1
                l(2) =   2
                l(3) =   2
     Q(r) pseudized with  8 coefficients,  rinner =    1.000   1.000   1.000
                                                       1.200   1.200

     PseudoPot. # 2 for S  read from file:
     ~/pseudo/S.pw91-van_ak.UPF
     MD5 check sum: Not computed, couldn't open file
     Pseudo is Ultrasoft, Zval =  6.0
     Generated by new atomic code, or converted to UPF format
     Using radial grid of  811 points,  6 beta functions with: 
                l(1) =   0
                l(2) =   0
                l(3) =   1
                l(4) =   1
                l(5) =   2
                l(6) =   2
     Q(r) pseudized with  8 coefficients,  rinner =    1.100   1.100   1.100
                                                       1.100   1.100

     atomic species   valence    mass     pseudopotential
        Mo             6.00    95.50000     Mo( 1.00)
        S              6.00    32.06500     S ( 1.00)

     No symmetry found



   Cartesian axes

     site n.     atom                  positions (alat units)
         1           Mo  tau(   1) = (   0.6912250   0.9625213   0.7490688  )
         2           Mo  tau(   2) = (   0.5214889   0.7213493   0.8022179  )
         3           Mo  tau(   3) = (   0.4769486   0.9794351   0.9469548  )
         4           Mo  tau(   4) = (   0.6995709   0.7904146   0.9996285  )
         5           Mo  tau(   5) = (   0.3900071   0.4198399   0.1710094  )
         6           Mo  tau(   6) = (   0.1091080   0.1336746   0.0530869  )
         7           Mo  tau(   7) = (   1.1166382   0.4492661   0.3450953  )
         8           Mo  tau(   8) = (   0.5301981   0.1738002   0.2769538  )
         9           Mo  tau(   9) = (   1.0837332   0.9491593   0.1656201  )
        10           Mo  tau(  10) = (   0.8356580   0.7561153   0.1873162  )
        11           Mo  tau(  11) = (   0.8971642   0.9750443   0.3795124  )
        12           Mo  tau(  12) = (   1.0437401   0.7162688   0.3555673  )
        13           Mo  tau(  13) = (   1.0039277   0.3657677   0.6421901  )
        14           Mo  tau(  14) = (   0.7598435   0.1972855   0.6588763  )
        15           Mo  tau(  15) = (   0.7703527   0.4210196   0.8401644  )
        16           Mo  tau(  16) = (   0.9871924   0.2248869   0.8883829  )
        17           S   tau(  17) = (   0.4572504   0.9244176   0.7011485  )
        18           S   tau(  18) = (   1.1418173   0.9327331   0.4071079  )
        19           S   tau(  19) = (   0.7501122   0.7248460   0.7650260  )
        20           S   tau(  20) = (   0.5953527   0.7225987   0.2040758  )
        21           S   tau(  21) = (   0.3405153   0.9551480   0.1560442  )
        22           S   tau(  22) = (   0.2898143   0.6174322   0.3150569  )
        23           S   tau(  23) = (   0.6546561   1.0390138   0.4058398  )
        24           S   tau(  24) = (   0.8180631   0.7501819   0.4368040  )
        25           S   tau(  25) = (   0.1500917   0.3667451   0.1189065  )
        26           S   tau(  26) = (   1.0076152   0.4685488   0.8682625  )
        27           S   tau(  27) = (   0.3679450   0.1885679   0.0943378  )
        28           S   tau(  28) = (   0.5067558   0.1747629   0.6778862  )
        29           S   tau(  29) = (   0.2636024   0.4026918   0.6720736  )
        30           S   tau(  30) = (   0.2391509   0.1900720   0.8674967  )
        31           S   tau(  31) = (   0.5216490   0.4739119   0.8036534  )
        32           S   tau(  32) = (   0.7457195   0.1962424   0.9027684  )
        33           S   tau(  33) = (   0.8411275   0.9939851   0.1367237  )
        34           S   tau(  34) = (   0.7136327   1.0307077   0.9727592  )
        35           S   tau(  35) = (   1.0671824   0.7107259   0.1165439  )
        36           S   tau(  36) = (   1.0872638   0.5870674   0.5599666  )
        37           S   tau(  37) = (   0.9109416   0.9883003   0.6321257  )
        38           S   tau(  38) = (   0.9484183   0.7911312   0.9921108  )
        39           S   tau(  39) = (   1.2264824   1.0146074   0.9586063  )
        40           S   tau(  40) = (   0.4589430   0.7414621   1.0240166  )
        41           S   tau(  41) = (   0.7743894   0.4340269   0.5957532  )
        42           S   tau(  42) = (   0.4919357   0.3814250   0.3784077  )
        43           S   tau(  43) = (   0.9828055   0.1070595   0.6735054  )
        44           S   tau(  44) = (   0.8773909   0.1570158   0.0978013  )
        45           S   tau(  45) = (   0.5861520   0.4443004   0.0182249  )
        46           S   tau(  46) = (   0.7522579   0.1777335   0.3975781  )
        47           S   tau(  47) = (   0.8955664   0.5071790   0.2670904  )
        48           S   tau(  48) = (   0.1119694   0.2420520   0.4539625  )

     number of k points=     8  Marzari-Vanderbilt smearing, width (Ry)=  0.0200
                       cart. coord. in units 2pi/alat
        k(    1) = (   0.0000000   0.0000000   0.0000000), wk =   0.2500000
        k(    2) = (   0.0000000   0.0000000  -0.4794933), wk =   0.2500000
        k(    3) = (   0.0000000  -0.4830076   0.0414340), wk =   0.2500000
        k(    4) = (   0.0000000  -0.4830076  -0.4380593), wk =   0.2500000
        k(    5) = (  -0.5000000   0.1042928   0.0502513), wk =   0.2500000
        k(    6) = (  -0.5000000   0.1042928  -0.4292420), wk =   0.2500000
        k(    7) = (  -0.5000000  -0.3787148   0.0916853), wk =   0.2500000
        k(    8) = (  -0.5000000  -0.3787148  -0.3878080), wk =   0.2500000

     Dense  grid:   809711 G-vectors     FFT dimensions: ( 120, 120, 120)

     Smooth grid:   286245 G-vectors     FFT dimensions: (  80,  90,  90)

     Estimated max dynamical RAM per process >     154.53 MB

     Estimated total dynamical RAM >       6.04 GB

     Initial potential from superposition of free atoms

     starting charge  287.97477, renormalised to  288.00000
     Starting wfcs are  272 randomized atomic wfcs

     total cpu time spent up to now is        9.9 secs

     Self-consistent Calculation

     iteration #  1     ecut=    45.00 Ry     beta= 0.70
     Davidson diagonalization with overlap
     ethr =  1.00E-02,  avg # of iterations =  2.0

     total cpu time spent up to now is       28.2 secs

     total energy              =   -1123.28528776 Ry
     Harris-Foulkes estimate   =   -1127.73590258 Ry
     estimated scf accuracy    <      12.47914146 Ry

     iteration #  2     ecut=    45.00 Ry     beta= 0.70
     Davidson diagonalization with overlap
     ethr =  4.33E-03,  avg # of iterations =  2.0

     total cpu time spent up to now is       45.5 secs

     total energy              =   -1124.97447051 Ry
     Harris-Foulkes estimate   =   -1126.36369516 Ry
     estimated scf accuracy    <       8.74626674 Ry

     iteration #  3     ecut=    45.00 Ry     beta= 0.70
     Davidson diagonalization with overlap
     ethr =  3.04E-03,  avg # of iterations =  1.1

     total cpu time spent up to now is       58.7 secs

     total energy              =   -1125.62748822 Ry
     Harris-Foulkes estimate   =   -1125.76449574 Ry
     estimated scf accuracy    <       1.25011760 Ry

     iteration #  4     ecut=    45.00 Ry     beta= 0.70
     Davidson diagonalization with overlap
     ethr =  4.34E-04,  avg # of iterations =  2.1

     total cpu time spent up to now is       72.8 secs

     total energy              =   -1125.68025818 Ry
     Harris-Foulkes estimate   =   -1125.71787331 Ry
     estimated scf accuracy    <       0.14338584 Ry

     iteration #  5     ecut=    45.00 Ry     beta= 0.70
     Davidson diagonalization with overlap
     ethr =  4.98E-05,  avg # of iterations =  7.2

     total cpu time spent up to now is      102.8 secs

     total energy              =   -1125.70881907 Ry
     Harris-Foulkes estimate   =   -1125.72379663 Ry
     estimated scf accuracy    <       0.05483285 Ry

     iteration #  6     ecut=    45.00 Ry     beta= 0.70
     Davidson diagonalization with overlap
     ethr =  1.90E-05,  avg # of iterations =  2.0

     total cpu time spent up to now is      117.2 secs

     total energy              =   -1125.71376803 Ry
     Harris-Foulkes estimate   =   -1125.71763728 Ry
     estimated scf accuracy    <       0.03493108 Ry

     iteration #  7     ecut=    45.00 Ry     beta= 0.70
     Davidson diagonalization with overlap
     ethr =  1.21E-05,  avg # of iterations =  1.1

     total cpu time spent up to now is      130.3 secs

     total energy              =   -1125.71555506 Ry
     Harris-Foulkes estimate   =   -1125.71634966 Ry
     estimated scf accuracy    <       0.00753044 Ry

     iteration #  8     ecut=    45.00 Ry     beta= 0.70
     Davidson diagonalization with overlap
     ethr =  2.61E-06,  avg # of iterations =  1.8

     total cpu time spent up to now is      144.0 secs

     total energy              =   -1125.71585805 Ry
     Harris-Foulkes estimate   =   -1125.71609319 Ry
     estimated scf accuracy    <       0.00137381 Ry

     iteration #  9     ecut=    45.00 Ry     beta= 0.70
     Davidson diagonalization with overlap
     ethr =  4.77E-07,  avg # of iterations =  5.5

     total cpu time spent up to now is      163.3 secs

     total energy              =   -1125.71604162 Ry
     Harris-Foulkes estimate   =   -1125.71611410 Ry
     estimated scf accuracy    <       0.00063240 Ry

     iteration # 10     ecut=    45.00 Ry     beta= 0.70
     Davidson diagonalization with overlap
     ethr =  2.20E-07,  avg # of iterations =  1.1

     total cpu time spent up to now is      176.4 secs

     total energy              =   -1125.71607126 Ry
     Harris-Foulkes estimate   =   -1125.71608996 Ry
     estimated scf accuracy    <       0.00011618 Ry

     iteration # 11     ecut=    45.00 Ry     beta= 0.70
     Davidson diagonalization with overlap
     ethr =  4.03E-08,  avg # of iterations =  3.2

     total cpu time spent up to now is      193.6 secs

     total energy              =   -1125.71608788 Ry
     Harris-Foulkes estimate   =   -1125.71609502 Ry
     estimated scf accuracy    <       0.00007055 Ry

     iteration # 12     ecut=    45.00 Ry     beta= 0.70
     Davidson diagonalization with overlap
     ethr =  2.45E-08,  avg # of iterations =  1.2

     total cpu time spent up to now is      206.8 secs

     total energy              =   -1125.71609153 Ry
     Harris-Foulkes estimate   =   -1125.71609361 Ry
     estimated scf accuracy    <       0.00001587 Ry

     iteration # 13     ecut=    45.00 Ry     beta= 0.70
     Davidson diagonalization with overlap
     ethr =  5.51E-09,  avg # of iterations =  2.2

     total cpu time spent up to now is      221.0 secs

     total energy              =   -1125.71609277 Ry
     Harris-Foulkes estimate   =   -1125.71609338 Ry
     estimated scf accuracy    <       0.00000426 Ry

     iteration # 14     ecut=    45.00 Ry     beta= 0.70
     Davidson diagonalization with overlap
     ethr =  1.48E-09,  avg # of iterations =  3.6

     total cpu time spent up to now is      238.4 secs

     total energy              =   -1125.71609339 Ry
     Harris-Foulkes estimate   =   -1125.71609355 Ry
     estimated scf accuracy    <       0.00000106 Ry

     iteration # 15     ecut=    45.00 Ry     beta= 0.70
     Davidson diagonalization with overlap
     ethr =  3.67E-10,  avg # of iterations =  2.6

     total cpu time spent up to now is      253.3 secs

     End of self-consistent calculation

          k = 0.0000 0.0000 0.0000 ( 35739 PWs)   bands (ev):

    -8.0747  -7.5181  -7.4205  -7.3917  -7.3578  -7.3115  -7.0166  -7.0139
    -6.9886  -6.9116  -6.8480  -6.8247  -6.7637  -6.6758  -6.6679  -6.5824
    -6.5469  -6.4984  -6.3806  -6.3712  -6.2401  -6.2352  -6.1543  -6.1349
    -6.0466  -5.9846  -5.8592  -5.7484  -5.6353  -5.5110  -5.3425  -5.0886
     0.1361   0.2598   0.3254   0.4011   0.4483   0.6372   0.7395   0.8086
     0.8184   0.8639   0.9009   0.9921   1.0159   1.0925   1.1751   1.1906
     1.2639   1.3445   1.4379   1.4960   1.5157   1.5771   1.6080   1.6502
     1.6662   1.7507   1.7881   1.8394   1.8670   1.9023   1.9548   1.9791
     2.0319   2.0569   2.1041   2.1141   2.2177   2.2605   2.2696   2.2915
     2.3149   2.3282   2.4044   2.4131   2.4630   2.4709   2.5170   2.5912
     2.6157   2.6362   2.6784   2.7125   2.7608   2.7810   2.8277   2.8468
     2.9630   2.9883   3.0251   3.0894   3.1116   3.1466   3.1803   3.2050
     3.2884   3.3324   3.3533   3.4500   3.4989   3.5407   3.5990   3.6786
     3.7654   3.8849   3.9183   3.9675   4.0537   4.1022   4.1769   4.2219
     4.3279   4.3643   4.3768   4.3980   4.4915   4.5661   4.6415   4.7295
     4.7615   4.7996   4.8165   4.9311   4.9559   5.0244   5.1597   5.2126
     5.2434   5.3844   5.4162   5.5410   5.5535   5.5729   5.6760   5.6946
     5.6975   5.7533   5.8522   5.8889   5.9786   6.0495   6.1246   6.1995
     6.2707   6.3351   6.4010   6.4200   6.5618   6.6019   6.8079   6.8704
     6.9271   6.9625   7.0823   7.1257   7.1566   7.2827   7.3243   7.4057
     7.4707   7.5520   7.5845   7.6945   7.7374   7.8217   7.8363   7.8418
     7.9519   8.0441   8.0509   8.0898   8.1182

          k = 0.0000 0.0000-0.4795 ( 35758 PWs)   bands (ev):

    -7.9868  -7.7435  -7.4513  -7.3603  -7.2972  -7.1492  -7.0935  -7.0302
    -6.9512  -6.9342  -6.8900  -6.8037  -6.7812  -6.7048  -6.6459  -6.6048
    -6.5170  -6.4873  -6.3994  -6.3348  -6.2373  -6.2212  -6.1344  -6.1305
    -6.0610  -6.0429  -5.8298  -5.7758  -5.5901  -5.5084  -5.3475  -5.0885
     0.1269   0.3258   0.3855   0.4223   0.5019   0.5941   0.6806   0.7376
     0.7905   0.8272   0.9743   1.0001   1.0715   1.1223   1.1546   1.2262
     1.2450   1.2962   1.3100   1.3975   1.4752   1.5420   1.5911   1.6270
     1.6909   1.7197   1.7741   1.7802   1.8139   1.8771   1.8945   1.9323
     1.9725   2.0227   2.0925   2.1123   2.1791   2.1969   2.2586   2.2947
     2.3209   2.4009   2.4209   2.4649   2.4981   2.5630   2.6039   2.6291
     2.6472   2.6591   2.7089   2.7464   2.7991   2.8114   2.8615   2.8996
     2.9567   3.0190   3.0617   3.0715   3.1504   3.1773   3.2139   3.2404
     3.3282   3.3864   3.4318   3.4776   3.5153   3.5700   3.6510   3.7637
     3.7954   3.8506   3.8869   3.8987   4.0066   4.0711   4.1615   4.2230
     4.2678   4.2930   4.3703   4.4428   4.5126   4.5536   4.6110   4.7354
     4.7891   4.8316   4.8932   4.9584   4.9643   5.0225   5.0930   5.1883
     5.2832   5.3504   5.4303   5.5200   5.5539   5.5751   5.6234   5.6683
     5.7026   5.7959   5.8434   5.8821   5.9918   6.0528   6.1389   6.1493
     6.2185   6.2410   6.3313   6.4197   6.5037   6.5435   6.7146   6.7670
     6.9175   6.9814   7.0995   7.1699   7.1974   7.2132   7.2896   7.4354
     7.4838   7.5666   7.6408   7.6810   7.7217   7.7676   7.8312   7.9110
     7.9282   8.0637   8.0877   8.1486   8.1725

          k = 0.0000-0.4830 0.0414 ( 35766 PWs)   bands (ev):

    -7.9560  -7.7830  -7.4371  -7.4002  -7.2924  -7.1561  -7.0769  -6.9937
    -6.9666  -6.9132  -6.8804  -6.8271  -6.8083  -6.6998  -6.6477  -6.5779
    -6.5246  -6.4695  -6.3851  -6.3487  -6.2566  -6.2091  -6.1579  -6.1453
    -6.1048  -5.9697  -5.8289  -5.7523  -5.6214  -5.5119  -5.3414  -5.0910
     0.1790   0.2816   0.4020   0.4125   0.4960   0.6510   0.7029   0.7585
     0.7885   0.8267   0.8786   0.9556   1.0459   1.0839   1.1243   1.1485
     1.2575   1.2951   1.4204   1.4343   1.4633   1.5263   1.5868   1.5870
     1.6889   1.7468   1.7752   1.8107   1.8209   1.8540   1.9021   1.9864
     2.0322   2.0690   2.1432   2.1562   2.2017   2.2668   2.2968   2.3043
     2.3208   2.3597   2.4159   2.4414   2.4661   2.5134   2.5550   2.6065
     2.6304   2.6477   2.6904   2.7346   2.8062   2.8253   2.8396   2.8679
     2.9345   2.9678   2.9867   3.0445   3.1240   3.1497   3.1927   3.2728
     3.3060   3.4108   3.4358   3.4880   3.6198   3.6385   3.6463   3.7165
     3.7584   3.8594   3.8807   3.9621   4.0444   4.1377   4.1579   4.1780
     4.2389   4.3569   4.3743   4.4690   4.5239   4.5521   4.6162   4.6854
     4.7376   4.7600   4.8332   4.9196   4.9734   5.0530   5.1293   5.1764
     5.3006   5.3841   5.4365   5.5107   5.5583   5.6056   5.6819   5.7326
     5.7869   5.8242   5.8524   5.9204   5.9620   6.0075   6.0721   6.1048
     6.2369   6.3138   6.3304   6.4375   6.4420   6.5305   6.7548   6.7768
     6.9457   6.9870   7.0308   7.1016   7.2139   7.2395   7.2884   7.3765
     7.5013   7.5608   7.5784   7.6476   7.7530   7.7733   7.8037   7.9306
     7.9637   8.0436   8.0594   8.1347   8.1780

          k = 0.0000-0.4830-0.4381 ( 35816 PWs)   bands (ev):

    -7.9161  -7.6902  -7.5799  -7.5195  -7.2254  -7.1008  -7.0770  -7.0765
    -6.9567  -6.9041  -6.8557  -6.8074  -6.7686  -6.6979  -6.6721  -6.6139
    -6.5222  -6.4522  -6.3913  -6.3442  -6.2448  -6.2116  -6.1663  -6.1217
    -6.0446  -5.9904  -5.8718  -5.7285  -5.6393  -5.5148  -5.3237  -5.0935
     0.2418   0.3081   0.3818   0.3967   0.5100   0.6188   0.7222   0.7573
     0.8184   0.8996   0.9295   0.9545   1.0071   1.0551   1.0850   1.1636
     1.1771   1.2495   1.3052   1.3756   1.4278   1.4800   1.5382   1.5630
     1.5820   1.7146   1.7440   1.7706   1.8326   1.8546   1.9030   1.9764
     2.0203   2.0902   2.1368   2.1639   2.2241   2.2620   2.2764   2.3244
     2.3934   2.4270   2.4383   2.4753   2.4994   2.5499   2.5702   2.6347
     2.6578   2.6901   2.7083   2.7537   2.7863   2.8303   2.8439   2.8766
     2.9168   2.9736   3.0757   3.0860   3.1171   3.2365   3.2470   3.2912
     3.3607   3.4277   3.4568   3.4781   3.5517   3.6405   3.6707   3.7672
     3.7885   3.8352   3.8930   3.9726   4.0443   4.0934   4.1240   4.2607
     4.2966   4.3370   4.3833   4.4387   4.5054   4.6079   4.6417   4.6590
     4.6805   4.8141   4.8559   4.8871   4.9854   5.0010   5.1088   5.1326
     5.3171   5.3269   5.3457   5.4615   5.5405   5.6326   5.6976   5.7354
     5.7575   5.8427   5.8712   5.9098   5.9867   6.0363   6.0621   6.1633
     6.2202   6.2464   6.2694   6.3611   6.4193   6.5189   6.7133   6.7390
     6.8196   7.0171   7.0462   7.1152   7.1766   7.2980   7.3106   7.4044
     7.4700   7.5670   7.6645   7.6752   7.7124   7.8023   7.8166   7.8628
     7.9368   8.0511   8.0879   8.1280   8.1532

          k =-0.5000 0.1043 0.0503 ( 35740 PWs)   bands (ev):

    -7.9313  -7.7626  -7.4741  -7.4248  -7.2519  -7.1415  -7.1042  -7.0809
    -6.9790  -6.8990  -6.8465  -6.8164  -6.7535  -6.7397  -6.6719  -6.5516
    -6.5151  -6.4774  -6.4205  -6.3580  -6.2584  -6.2033  -6.1549  -6.1187
    -6.0735  -5.9838  -5.8670  -5.7343  -5.6039  -5.5205  -5.3392  -5.0660
     0.2915   0.3634   0.4286   0.4736   0.5152   0.5931   0.6446   0.7190
     0.7806   0.8465   0.9011   0.9543   1.0275   1.0538   1.1250   1.1831
     1.2203   1.3040   1.3641   1.3960   1.4535   1.4952   1.5708   1.5852
     1.6151   1.6953   1.7278   1.8075   1.8379   1.8591   1.9262   1.9480
     1.9731   2.0539   2.1051   2.1831   2.2016   2.2266   2.2571   2.3187
     2.3312   2.3892   2.4201   2.4268   2.4526   2.4821   2.5509   2.5723
     2.6365   2.6592   2.6766   2.7414   2.7783   2.7955   2.8428   2.9238
     2.9559   3.0190   3.0721   3.0887   3.1476   3.1689   3.2178   3.3032
     3.3469   3.3836   3.4461   3.5412   3.5716   3.5947   3.6526   3.6639
     3.7529   3.8667   3.9007   3.9474   4.0254   4.0893   4.1459   4.2708
     4.2910   4.3337   4.3944   4.4675   4.5082   4.6090   4.6251   4.6700
     4.7232   4.7826   4.8318   4.9103   4.9835   5.0492   5.0730   5.1634
     5.2167   5.3491   5.4434   5.4743   5.5703   5.6772   5.7257   5.7571
     5.8069   5.8547   5.8773   5.9374   5.9505   6.0967   6.1573   6.2106
     6.2571   6.3109   6.3495   6.4266   6.4782   6.5974   6.6413   6.7158
     6.8242   6.9758   7.0380   7.1222   7.2151   7.2587   7.4059   7.4266
     7.4891   7.5271   7.5997   7.6679   7.7239   7.8021   7.8358   7.9154
     7.9771   8.0561   8.0822   8.0912   8.1288

          k =-0.5000 0.1043-0.4292 ( 35842 PWs)   bands (ev):

    -7.8739  -7.6762  -7.6406  -7.4704  -7.2864  -7.1669  -7.1048  -6.9864
    -6.9656  -6.8879  -6.8322  -6.8227  -6.8070  -6.6847  -6.6578  -6.5548
    -6.5273  -6.5215  -6.3861  -6.3471  -6.2243  -6.2068  -6.1707  -6.1377
    -6.0680  -6.0022  -5.8378  -5.7688  -5.5612  -5.5230  -5.3489  -5.0614
     0.2552   0.4057   0.4279   0.4552   0.5417   0.6133   0.6853   0.7393
     0.7783   0.8921   0.9011   0.9609   0.9777   1.0605   1.0724   1.1759
     1.1954   1.2809   1.3019   1.3760   1.3932   1.4707   1.5161   1.5813
     1.6645   1.6809   1.7037   1.7897   1.8151   1.8454   1.8865   1.9327
     1.9472   2.0325   2.1001   2.1538   2.2027   2.2613   2.2810   2.3073
     2.3330   2.3404   2.3909   2.4170   2.4718   2.5101   2.5371   2.5642
     2.6285   2.6861   2.7077   2.7467   2.8175   2.8540   2.9284   2.9706
     2.9812   3.0139   3.0665   3.0852   3.1632   3.2002   3.2194   3.2736
     3.3743   3.4229   3.4926   3.5725   3.6017   3.6185   3.7373   3.7493
     3.8038   3.8413   3.9557   4.0278   4.0791   4.1362   4.1623   4.2385
     4.2587   4.3334   4.3548   4.4205   4.5171   4.5364   4.5904   4.6576
     4.6944   4.7461   4.8159   4.8865   4.9424   5.0582   5.1578   5.1773
     5.3223   5.3457   5.4328   5.4588   5.5111   5.5600   5.6798   5.7012
     5.7406   5.8768   5.9045   5.9265   6.0036   6.1013   6.1193   6.2020
     6.2664   6.2969   6.3079   6.3919   6.4867   6.5655   6.6585   6.7685
     6.8392   6.8931   6.9290   7.1318   7.1830   7.3139   7.3633   7.3995
     7.4663   7.4942   7.6743   7.6917   7.7415   7.7698   7.8493   7.9324
     7.9772   7.9974   8.0596   8.1181   8.1421

          k =-0.5000-0.3787 0.0917 ( 35794 PWs)   bands (ev):

    -7.8499  -7.7454  -7.6074  -7.4714  -7.2481  -7.1031  -7.0835  -7.0613
    -6.9707  -6.9203  -6.9075  -6.7742  -6.7582  -6.7202  -6.6863  -6.5747
    -6.5147  -6.4561  -6.3965  -6.3738  -6.2563  -6.1754  -6.1601  -6.1404
    -6.0674  -5.9952  -5.8340  -5.7465  -5.5760  -5.5225  -5.3428  -5.0681
     0.2462   0.3967   0.4165   0.4771   0.5032   0.6055   0.6170   0.7293
     0.7960   0.8701   0.8881   0.9454   0.9833   1.0433   1.1265   1.1657
     1.2232   1.2932   1.3450   1.3640   1.4375   1.4684   1.5077   1.5554
     1.6784   1.6909   1.7144   1.7811   1.8148   1.8843   1.9180   1.9649
     2.0616   2.0765   2.1295   2.1562   2.1758   2.2501   2.2676   2.2775
     2.3059   2.3922   2.4188   2.4514   2.4639   2.5028   2.5740   2.5955
     2.6320   2.6693   2.6895   2.7362   2.7742   2.8260   2.8794   2.9138
     2.9708   3.0044   3.0310   3.0945   3.1182   3.2232   3.2302   3.2645
     3.2983   3.3722   3.4807   3.5139   3.5602   3.6160   3.6448   3.7579
     3.8541   3.8797   3.9324   3.9832   4.0996   4.1164   4.1421   4.2159
     4.2506   4.3021   4.3509   4.4753   4.5101   4.6031   4.6547   4.7481
     4.7838   4.8079   4.8495   4.9324   4.9456   5.0917   5.1642   5.2094
     5.2429   5.3131   5.3804   5.4684   5.5684   5.5969   5.6140   5.7185
     5.7418   5.7944   5.9051   5.9637   6.0133   6.0610   6.1474   6.1615
     6.2010   6.3359   6.3786   6.4334   6.4586   6.5549   6.6511   6.7097
     6.7966   6.9281   7.0278   7.1056   7.1558   7.2535   7.4085   7.4251
     7.4559   7.5968   7.6541   7.6964   7.7077   7.7229   7.8462   7.8802
     7.9489   7.9841   8.0444   8.1272   8.1568

          k =-0.5000-0.3787-0.3878 ( 35790 PWs)   bands (ev):

    -7.8622  -7.6536  -7.5344  -7.4841  -7.3605  -7.2629  -7.1989  -6.9718
    -6.9477  -6.9013  -6.8414  -6.8098  -6.7573  -6.7038  -6.6573  -6.5831
    -6.5356  -6.4657  -6.3814  -6.3234  -6.2201  -6.1665  -6.1540  -6.1289
    -6.0553  -6.0084  -5.8567  -5.7490  -5.5940  -5.5249  -5.3355  -5.0671
     0.2726   0.3892   0.4551   0.5117   0.5201   0.5451   0.6808   0.7480
     0.7781   0.8065   0.8497   0.9629   1.0219   1.0368   1.0834   1.1207
     1.1782   1.2344   1.2647   1.3252   1.3774   1.4916   1.5174   1.6243
     1.6443   1.6748   1.7604   1.7715   1.8293   1.8630   1.9017   1.9670
     1.9870   2.0838   2.0953   2.1215   2.1384   2.2106   2.2364   2.3415
     2.3691   2.4110   2.4476   2.4935   2.5247   2.5472   2.5770   2.6011
     2.6385   2.6623   2.6892   2.7261   2.8125   2.8417   2.8867   2.9162
     2.9448   2.9926   3.0192   3.0974   3.1297   3.1984   3.2518   3.2882
     3.3087   3.4461   3.5083   3.5989   3.6278   3.6686   3.7436   3.7866
     3.8254   3.8791   3.9072   3.9942   4.0620   4.1411   4.2178   4.2328
     4.2713   4.3188   4.4103   4.4261   4.4976   4.5893   4.6099   4.6652
     4.7279   4.8444   4.8798   4.9514   4.9906   5.0190   5.0878   5.1572
     5.2533   5.3081   5.4204   5.4685   5.5020   5.5766   5.6286   5.7048
     5.7448   5.7840   5.8551   5.8844   5.9912   6.0457   6.1072   6.1717
     6.2282   6.2870   6.3667   6.4239   6.5223   6.5946   6.6307   6.7253
     6.7933   6.8696   7.0692   7.1325   7.1853   7.2259   7.3752   7.4002
     7.4678   7.5638   7.6449   7.6733   7.7555   7.7928   7.8614   7.9149
     7.9255   8.0317   8.0697   8.0936   8.1116

     the Fermi energy is     6.2003 ev

!    total energy              =   -1125.71609332 Ry
     Harris-Foulkes estimate   =   -1125.71609354 Ry
     estimated scf accuracy    <       0.00000029 Ry

     The total energy is the sum of the following terms:

     one-electron contribution =    -111.65588192 Ry
     hartree contribution      =     215.43059148 Ry
     xc contribution           =    -444.46101014 Ry
     ewald contribution        =    -785.03417677 Ry
     smearing contrib. (-TS)   =       0.00438402 Ry

     convergence has been achieved in  15 iterations

     Forces acting on atoms (cartesian axes, Ry/au):

     atom    1 type  1   force =     0.00120557    0.01902365   -0.01536543
     atom    2 type  1   force =    -0.01955959   -0.05938373   -0.01521504
     atom    3 type  1   force =    -0.00872340   -0.00311343    0.02088057
     atom    4 type  1   force =     0.04053617    0.00432449   -0.00474682
     atom    5 type  1   force =     0.01137273   -0.00494892   -0.02419979
     atom    6 type  1   force =    -0.00597832   -0.01330855    0.01306881
     atom    7 type  1   force =    -0.03874833   -0.03192330    0.01548016
     atom    8 type  1   force =    -0.02601126   -0.02253686    0.02233360
     atom    9 type  1   force =     0.01985364   -0.02060885   -0.00007266
     atom   10 type  1   force =    -0.00176806    0.00389973   -0.02110126
     atom   11 type  1   force =     0.01411773   -0.04367926    0.01068130
     atom   12 type  1   force =     0.01124398    0.04112703   -0.01123845
     atom   13 type  1   force =     0.00122389   -0.02313964    0.00139640
     atom   14 type  1   force =    -0.00810148    0.02673186    0.00327802
     atom   15 type  1   force =     0.00107373    0.02949950   -0.01198290
     atom   16 type  1   force =    -0.00024730   -0.00682528   -0.00792593
     atom   17 type  2   force =    -0.00573200    0.02686539   -0.00637263
     atom   18 type  2   force =    -0.00889211    0.00229929   -0.00916017
     atom   19 type  2   force =     0.02843651   -0.00809414   -0.00853644
     atom   20 type  2   force =    -0.00069600    0.00397075   -0.01016228
     atom   21 type  2   force =     0.00778852   -0.00799083   -0.02302820
     atom   22 type  2   force =     0.01076697   -0.03538853    0.00517854
     atom   23 type  2   force =    -0.00329135    0.03753760   -0.01049808
     atom   24 type  2   force =    -0.00690450    0.00646650    0.00066702
     atom   25 type  2   force =     0.02263290    0.00997309   -0.00922029
     atom   26 type  2   force =     0.00526395   -0.00366132   -0.00222453
     atom   27 type  2   force =     0.00767274    0.01097813    0.00590365
     atom   28 type  2   force =     0.00681232   -0.03257089   -0.00028337
     atom   29 type  2   force =    -0.02371272    0.00274172   -0.00991413
     atom   30 type  2   force =     0.00048928    0.01270596   -0.00608863
     atom   31 type  2   force =     0.00632981    0.04278407   -0.00875472
     atom   32 type  2   force =    -0.01484550   -0.01839992    0.01469205
     atom   33 type  2   force =     0.01080562    0.01806869    0.00970292
     atom   34 type  2   force =    -0.00046370    0.01132195    0.00467810
     atom   35 type  2   force =     0.00060712    0.02728351    0.01196125
     atom   36 type  2   force =     0.01246350   -0.01925810    0.01863770
     atom   37 type  2   force =     0.00280421    0.00209924    0.01910389
     atom   38 type  2   force =    -0.01792598   -0.00486138    0.01310565
     atom   39 type  2   force =    -0.00312476   -0.00855246   -0.01486732
     atom   40 type  2   force =    -0.01661929    0.00313247    0.02782452
     atom   41 type  2   force =    -0.00036445   -0.01125574    0.00258703
     atom   42 type  2   force =     0.00447263   -0.00633808    0.00013201
     atom   43 type  2   force =    -0.00263349    0.04088437   -0.00302046
     atom   44 type  2   force =    -0.00849428    0.01483344    0.00571771
     atom   45 type  2   force =     0.00093515   -0.01464572    0.01229007
     atom   46 type  2   force =    -0.02345989   -0.00070002   -0.00904486
     atom   47 type  2   force =     0.00998922   -0.01934273    0.02739506
     atom   48 type  2   force =     0.00739987    0.02197525   -0.02367164

     Total force =     0.204946     Total SCF correction =     0.001072
 
     init_run     :      8.90s CPU      9.12s WALL (       1 calls)
     electrons    :    239.17s CPU    243.43s WALL (       1 calls)
     forces       :      5.04s CPU      5.21s WALL (       1 calls)

     Called by init_run:
     wfcinit      :      6.72s CPU      6.83s WALL (       1 calls)
     potinit      :      0.54s CPU      0.55s WALL (       1 calls)
     hinit0       :      0.73s CPU      0.75s WALL (       1 calls)

     Called by electrons:
     c_bands      :    197.98s CPU    200.03s WALL (      15 calls)
     sum_band     :     33.81s CPU     35.40s WALL (      15 calls)
     v_of_rho     :      1.25s CPU      1.31s WALL (      16 calls)
     newd         :      4.99s CPU      5.51s WALL (      16 calls)
     mix_rho      :      1.33s CPU      1.39s WALL (      15 calls)

     Called by c_bands:
     init_us_2    :      4.79s CPU      4.84s WALL (     256 calls)
     cegterg      :    184.59s CPU    186.57s WALL (     120 calls)

     Called by sum_band:
     sum_band:bec :      0.38s CPU      0.38s WALL (     120 calls)
     addusdens    :      8.28s CPU      9.37s WALL (      15 calls)

     Called by *egterg:
     h_psi        :    101.25s CPU    102.75s WALL (     440 calls)
     s_psi        :     20.68s CPU     20.69s WALL (     440 calls)
     g_psi        :      0.50s CPU      0.50s WALL (     312 calls)
     cdiaghg      :     31.28s CPU     31.62s WALL (     432 calls)

     Called by h_psi:
     h_psi:pot    :    100.07s CPU    101.56s WALL (     440 calls)
     h_psi:calbec :     22.35s CPU     23.00s WALL (     440 calls)
     vloc_psi     :     56.51s CPU     57.32s WALL (     440 calls)
     add_vuspsi   :     21.20s CPU     21.23s WALL (     440 calls)

     General routines
     calbec       :     33.65s CPU     34.63s WALL (     592 calls)
     fft          :      1.07s CPU      1.14s WALL (     217 calls)
     ffts         :      0.57s CPU      0.63s WALL (     429 calls)
     fftw         :     64.07s CPU     64.98s WALL (  119410 calls)
     interpolate  :      0.12s CPU      0.13s WALL (      16 calls)
 
     Parallel routines
     fft_scatt_xy :      6.27s CPU      6.36s WALL (  120056 calls)
     fft_scatt_yz :     29.07s CPU     29.62s WALL (  120056 calls)
 
     PWSCF        :   4m13.80s CPU   4m18.56s WALL

 
   This run was terminated on:  23:15:51  24Dec2021            

=------------------------------------------------------------------------------=
   JOB DONE.
=------------------------------------------------------------------------------=

     Program PWSCF v.6.4 starts on 24Dec2021 at 23:15:52 

     This program is part of the open-source Quantum ESPRESSO suite
     for quantum simulation of materials; please cite
         "P. Giannozzi et al., J. Phys.:Condens. Matter 21 395502 (2009);
         "P. Giannozzi et al., J. Phys.:Condens. Matter 29 465901 (2017);
          URL http://www.quantum-espresso.org", 
     in publications or presentations arising from this work. More details at
     http://www.quantum-espresso.org/quote

     Parallel version (MPI), running on    40 processors

     MPI processes distributed on     1 nodes
     R & G space division:  proc/nbgrp/npool/nimage =      40
     Waiting for input...
     Reading input from standard input
Warning: card    &IONS ignored
Warning: card      ION_DYNAMICS = 'BFGS' ignored
Warning: card   / ignored
Warning: card    &CELL ignored
Warning: card      CELL_DYNAMICS = 'BFGS', ignored
Warning: card    / ignored

     Current dimensions of program PWSCF are:
     Max number of different atomic species (ntypx) = 10
     Max number of k-points (npk) =  40000
     Max angular momentum in pseudopotentials (lmaxx) =  3

     Subspace diagonalization in iterative solution of the eigenvalue problem:
     one sub-group per band group will be used
     scalapack distributed-memory algorithm (size of sub-group:  4*  4 procs)

 
     Parallelization info
     --------------------
     sticks:   dense  smooth     PW     G-vecs:    dense   smooth      PW
     Min         258     129     34                20242     7155     995
     Max         259     130     35                20244     7157    1001
     Sum       10335    5167   1383               809711   286245   39895
 


     bravais-lattice index     =            0
     lattice parameter (alat)  =      18.6649  a.u.
     unit-cell volume          =    7019.0497 (a.u.)^3
     number of atoms/cell      =           48
     number of atomic types    =            2
     number of electrons       =       288.00
     number of Kohn-Sham states=          173
     kinetic-energy cutoff     =      45.0000  Ry
     charge density cutoff     =     360.0000  Ry
     convergence threshold     =      1.0E-06
     mixing beta               =       0.7000
     number of iterations used =            8  local-TF  mixing
     Exchange-correlation      = SLA PW GGX GGC ( 1  4  2  2 0 0)

     celldm(1)=  18.664869  celldm(2)=   0.000000  celldm(3)=   0.000000
     celldm(4)=   0.000000  celldm(5)=   0.000000  celldm(6)=   0.000000

     crystal axes: (cart. coord. in units of alat)
               a(1) = (   1.000000   0.000000   0.000000 )  
               a(2) = (   0.215924   1.035180   0.000000 )  
               a(3) = (   0.123459   0.089452   1.042767 )  

     reciprocal axes: (cart. coord. in units 2 pi/alat)
               b(1) = (  1.000000 -0.208586 -0.100503 )  
               b(2) = (  0.000000  0.966015 -0.082868 )  
               b(3) = (  0.000000  0.000000  0.958987 )  


     PseudoPot. # 1 for Mo read from file:
     ~/pseudo/Mo.pw91-n-van.UPF
     MD5 check sum: Not computed, couldn't open file
     Pseudo is Ultrasoft + core correction, Zval =  6.0
     Generated by new atomic code, or converted to UPF format
     Using radial grid of  965 points,  3 beta functions with: 
                l(1) =   1
                l(2) =   2
                l(3) =   2
     Q(r) pseudized with  8 coefficients,  rinner =    1.000   1.000   1.000
                                                       1.200   1.200

     PseudoPot. # 2 for S  read from file:
     ~/pseudo/S.pw91-van_ak.UPF
     MD5 check sum: Not computed, couldn't open file
     Pseudo is Ultrasoft, Zval =  6.0
     Generated by new atomic code, or converted to UPF format
     Using radial grid of  811 points,  6 beta functions with: 
                l(1) =   0
                l(2) =   0
                l(3) =   1
                l(4) =   1
                l(5) =   2
                l(6) =   2
     Q(r) pseudized with  8 coefficients,  rinner =    1.100   1.100   1.100
                                                       1.100   1.100

     atomic species   valence    mass     pseudopotential
        Mo             6.00    95.50000     Mo( 1.00)
        S              6.00    32.06500     S ( 1.00)

     No symmetry found



   Cartesian axes

     site n.     atom                  positions (alat units)
         1           Mo  tau(   1) = (   0.6912250   0.9625213   0.7490688  )
         2           Mo  tau(   2) = (   0.5214889   0.7213493   0.8022179  )
         3           Mo  tau(   3) = (   0.4769486   0.9794351   0.9469548  )
         4           Mo  tau(   4) = (   0.6995709   0.7904146   0.9996285  )
         5           Mo  tau(   5) = (   0.3900071   0.4198399   0.1710094  )
         6           Mo  tau(   6) = (   0.1091080   0.1336746   0.0530869  )
         7           Mo  tau(   7) = (   1.1166382   0.4492661   0.3450953  )
         8           Mo  tau(   8) = (   0.5301981   0.1738002   0.2769538  )
         9           Mo  tau(   9) = (   1.0837332   0.9491593   0.1656201  )
        10           Mo  tau(  10) = (   0.8356580   0.7561153   0.1873162  )
        11           Mo  tau(  11) = (   0.8971642   0.9750443   0.3795124  )
        12           Mo  tau(  12) = (   1.0437401   0.7162688   0.3555673  )
        13           Mo  tau(  13) = (   1.0039277   0.3657677   0.6421901  )
        14           Mo  tau(  14) = (   0.7598435   0.1972855   0.6588763  )
        15           Mo  tau(  15) = (   0.7703527   0.4210196   0.8401644  )
        16           Mo  tau(  16) = (   0.9871924   0.2248869   0.8883829  )
        17           S   tau(  17) = (   0.4572504   0.9244176   0.7011485  )
        18           S   tau(  18) = (   1.1418173   0.9327331   0.4071079  )
        19           S   tau(  19) = (   0.7501122   0.7248460   0.7650260  )
        20           S   tau(  20) = (   0.5953527   0.7225987   0.2040758  )
        21           S   tau(  21) = (   0.3405153   0.9551480   0.1560442  )
        22           S   tau(  22) = (   0.2898143   0.6174322   0.3150569  )
        23           S   tau(  23) = (   0.6546561   1.0390138   0.4058398  )
        24           S   tau(  24) = (   0.8180631   0.7501819   0.4368040  )
        25           S   tau(  25) = (   0.1500917   0.3667451   0.1189065  )
        26           S   tau(  26) = (   1.0076152   0.4685488   0.8682625  )
        27           S   tau(  27) = (   0.3679450   0.1885679   0.0943378  )
        28           S   tau(  28) = (   0.5067558   0.1747629   0.6778862  )
        29           S   tau(  29) = (   0.2636024   0.4026918   0.6720736  )
        30           S   tau(  30) = (   0.2391509   0.1900720   0.8674967  )
        31           S   tau(  31) = (   0.5216490   0.4739119   0.8036534  )
        32           S   tau(  32) = (   0.7457195   0.1962424   0.9027684  )
        33           S   tau(  33) = (   0.8411275   0.9939851   0.1367237  )
        34           S   tau(  34) = (   0.7136327   1.0307077   0.9727592  )
        35           S   tau(  35) = (   1.0671824   0.7107259   0.1165439  )
        36           S   tau(  36) = (   1.0872638   0.5870674   0.5599666  )
        37           S   tau(  37) = (   0.9109416   0.9883003   0.6321257  )
        38           S   tau(  38) = (   0.9484183   0.7911312   0.9921108  )
        39           S   tau(  39) = (   1.2264824   1.0146074   0.9586063  )
        40           S   tau(  40) = (   0.4589430   0.7414621   1.0240166  )
        41           S   tau(  41) = (   0.7743894   0.4340269   0.5957532  )
        42           S   tau(  42) = (   0.4919357   0.3814250   0.3784077  )
        43           S   tau(  43) = (   0.9828055   0.1070595   0.6735054  )
        44           S   tau(  44) = (   0.8773909   0.1570158   0.0978013  )
        45           S   tau(  45) = (   0.5861520   0.4443004   0.0182249  )
        46           S   tau(  46) = (   0.7522579   0.1777335   0.3975781  )
        47           S   tau(  47) = (   0.8955664   0.5071790   0.2670904  )
        48           S   tau(  48) = (   0.1119694   0.2420520   0.4539625  )

     number of k points=     8  Marzari-Vanderbilt smearing, width (Ry)=  0.0200
                       cart. coord. in units 2pi/alat
        k(    1) = (   0.0000000   0.0000000   0.0000000), wk =   0.2500000
        k(    2) = (   0.0000000   0.0000000  -0.4794933), wk =   0.2500000
        k(    3) = (   0.0000000  -0.4830076   0.0414340), wk =   0.2500000
        k(    4) = (   0.0000000  -0.4830076  -0.4380593), wk =   0.2500000
        k(    5) = (  -0.5000000   0.1042928   0.0502513), wk =   0.2500000
        k(    6) = (  -0.5000000   0.1042928  -0.4292420), wk =   0.2500000
        k(    7) = (  -0.5000000  -0.3787148   0.0916853), wk =   0.2500000
        k(    8) = (  -0.5000000  -0.3787148  -0.3878080), wk =   0.2500000

     Dense  grid:   809711 G-vectors     FFT dimensions: ( 120, 120, 120)

     Smooth grid:   286245 G-vectors     FFT dimensions: (  80,  90,  90)

     Estimated max dynamical RAM per process >     154.53 MB

     Estimated total dynamical RAM >       6.04 GB

     Initial potential from superposition of free atoms

     starting charge  287.97477, renormalised to  288.00000
     Starting wfcs are  272 randomized atomic wfcs

     total cpu time spent up to now is        9.8 secs

     Self-consistent Calculation

     iteration #  1     ecut=    45.00 Ry     beta= 0.70
     Davidson diagonalization with overlap
     ethr =  1.00E-02,  avg # of iterations =  2.0

     total cpu time spent up to now is       28.0 secs

     total energy              =   -1123.28528776 Ry
     Harris-Foulkes estimate   =   -1127.73590258 Ry
     estimated scf accuracy    <      12.47914146 Ry

     iteration #  2     ecut=    45.00 Ry     beta= 0.70
     Davidson diagonalization with overlap
     ethr =  4.33E-03,  avg # of iterations =  2.0

     total cpu time spent up to now is       45.2 secs

     total energy              =   -1124.97447051 Ry
     Harris-Foulkes estimate   =   -1126.36369516 Ry
     estimated scf accuracy    <       8.74626674 Ry

     iteration #  3     ecut=    45.00 Ry     beta= 0.70
     Davidson diagonalization with overlap
     ethr =  3.04E-03,  avg # of iterations =  1.1

     total cpu time spent up to now is       58.4 secs

     total energy              =   -1125.62748822 Ry
     Harris-Foulkes estimate   =   -1125.76449574 Ry
     estimated scf accuracy    <       1.25011760 Ry

     iteration #  4     ecut=    45.00 Ry     beta= 0.70
     Davidson diagonalization with overlap
     ethr =  4.34E-04,  avg # of iterations =  2.1

     total cpu time spent up to now is       72.4 secs

     total energy              =   -1125.68025818 Ry
     Harris-Foulkes estimate   =   -1125.71787331 Ry
     estimated scf accuracy    <       0.14338584 Ry

     iteration #  5     ecut=    45.00 Ry     beta= 0.70
     Davidson diagonalization with overlap
     ethr =  4.98E-05,  avg # of iterations =  7.2

     total cpu time spent up to now is      104.0 secs

     total energy              =   -1125.70881907 Ry
     Harris-Foulkes estimate   =   -1125.72379663 Ry
     estimated scf accuracy    <       0.05483285 Ry

     iteration #  6     ecut=    45.00 Ry     beta= 0.70
     Davidson diagonalization with overlap
     ethr =  1.90E-05,  avg # of iterations =  2.0

     total cpu time spent up to now is      118.3 secs

     total energy              =   -1125.71376803 Ry
     Harris-Foulkes estimate   =   -1125.71763728 Ry
     estimated scf accuracy    <       0.03493108 Ry

     iteration #  7     ecut=    45.00 Ry     beta= 0.70
     Davidson diagonalization with overlap
     ethr =  1.21E-05,  avg # of iterations =  1.1

     total cpu time spent up to now is      131.4 secs

     total energy              =   -1125.71555506 Ry
     Harris-Foulkes estimate   =   -1125.71634966 Ry
     estimated scf accuracy    <       0.00753044 Ry

     iteration #  8     ecut=    45.00 Ry     beta= 0.70
     Davidson diagonalization with overlap
     ethr =  2.61E-06,  avg # of iterations =  1.8

     total cpu time spent up to now is      145.1 secs

     total energy              =   -1125.71585805 Ry
     Harris-Foulkes estimate   =   -1125.71609319 Ry
     estimated scf accuracy    <       0.00137381 Ry

     iteration #  9     ecut=    45.00 Ry     beta= 0.70
     Davidson diagonalization with overlap
     ethr =  4.77E-07,  avg # of iterations =  5.5

     total cpu time spent up to now is      164.2 secs

     total energy              =   -1125.71604162 Ry
     Harris-Foulkes estimate   =   -1125.71611410 Ry
     estimated scf accuracy    <       0.00063240 Ry

     iteration # 10     ecut=    45.00 Ry     beta= 0.70
     Davidson diagonalization with overlap
     ethr =  2.20E-07,  avg # of iterations =  1.1

     total cpu time spent up to now is      177.3 secs

     total energy              =   -1125.71607126 Ry
     Harris-Foulkes estimate   =   -1125.71608996 Ry
     estimated scf accuracy    <       0.00011618 Ry

     iteration # 11     ecut=    45.00 Ry     beta= 0.70
     Davidson diagonalization with overlap
     ethr =  4.03E-08,  avg # of iterations =  3.2

     total cpu time spent up to now is      194.2 secs

     total energy              =   -1125.71608788 Ry
     Harris-Foulkes estimate   =   -1125.71609502 Ry
     estimated scf accuracy    <       0.00007055 Ry

     iteration # 12     ecut=    45.00 Ry     beta= 0.70
     Davidson diagonalization with overlap
     ethr =  2.45E-08,  avg # of iterations =  1.2

     total cpu time spent up to now is      207.4 secs

     total energy              =   -1125.71609153 Ry
     Harris-Foulkes estimate   =   -1125.71609361 Ry
     estimated scf accuracy    <       0.00001587 Ry

     iteration # 13     ecut=    45.00 Ry     beta= 0.70
     Davidson diagonalization with overlap
     ethr =  5.51E-09,  avg # of iterations =  2.2

     total cpu time spent up to now is      221.4 secs

     total energy              =   -1125.71609277 Ry
     Harris-Foulkes estimate   =   -1125.71609338 Ry
     estimated scf accuracy    <       0.00000426 Ry

     iteration # 14     ecut=    45.00 Ry     beta= 0.70
     Davidson diagonalization with overlap
     ethr =  1.48E-09,  avg # of iterations =  3.6

     total cpu time spent up to now is      238.6 secs

     total energy              =   -1125.71609339 Ry
     Harris-Foulkes estimate   =   -1125.71609355 Ry
     estimated scf accuracy    <       0.00000106 Ry

     iteration # 15     ecut=    45.00 Ry     beta= 0.70
     Davidson diagonalization with overlap
     ethr =  3.67E-10,  avg # of iterations =  2.6

     total cpu time spent up to now is      253.8 secs

     End of self-consistent calculation

          k = 0.0000 0.0000 0.0000 ( 35739 PWs)   bands (ev):

    -8.0747  -7.5181  -7.4205  -7.3917  -7.3578  -7.3115  -7.0166  -7.0139
    -6.9886  -6.9116  -6.8480  -6.8247  -6.7637  -6.6758  -6.6679  -6.5824
    -6.5469  -6.4984  -6.3806  -6.3712  -6.2401  -6.2352  -6.1543  -6.1349
    -6.0466  -5.9846  -5.8592  -5.7484  -5.6353  -5.5110  -5.3425  -5.0886
     0.1361   0.2598   0.3254   0.4011   0.4483   0.6372   0.7395   0.8086
     0.8184   0.8639   0.9009   0.9921   1.0159   1.0925   1.1751   1.1906
     1.2639   1.3445   1.4379   1.4960   1.5157   1.5771   1.6080   1.6502
     1.6662   1.7507   1.7881   1.8394   1.8670   1.9023   1.9548   1.9791
     2.0319   2.0569   2.1041   2.1141   2.2177   2.2605   2.2696   2.2915
     2.3149   2.3282   2.4044   2.4131   2.4630   2.4709   2.5170   2.5912
     2.6157   2.6362   2.6784   2.7125   2.7608   2.7810   2.8277   2.8468
     2.9630   2.9883   3.0251   3.0894   3.1116   3.1466   3.1803   3.2050
     3.2884   3.3324   3.3533   3.4500   3.4989   3.5407   3.5990   3.6786
     3.7654   3.8849   3.9183   3.9675   4.0537   4.1022   4.1769   4.2219
     4.3279   4.3643   4.3768   4.3980   4.4915   4.5661   4.6415   4.7295
     4.7615   4.7996   4.8165   4.9311   4.9559   5.0244   5.1597   5.2126
     5.2434   5.3844   5.4162   5.5410   5.5535   5.5729   5.6760   5.6946
     5.6975   5.7533   5.8522   5.8889   5.9786   6.0495   6.1246   6.1995
     6.2707   6.3351   6.4010   6.4200   6.5618   6.6019   6.8079   6.8704
     6.9271   6.9625   7.0823   7.1257   7.1566   7.2827   7.3243   7.4057
     7.4707   7.5520   7.5845   7.6945   7.7374   7.8217   7.8363   7.8418
     7.9519   8.0441   8.0509   8.0898   8.1182

          k = 0.0000 0.0000-0.4795 ( 35758 PWs)   bands (ev):

    -7.9868  -7.7435  -7.4513  -7.3603  -7.2972  -7.1492  -7.0935  -7.0302
    -6.9512  -6.9342  -6.8900  -6.8037  -6.7812  -6.7048  -6.6459  -6.6048
    -6.5170  -6.4873  -6.3994  -6.3348  -6.2373  -6.2212  -6.1344  -6.1305
    -6.0610  -6.0429  -5.8298  -5.7758  -5.5901  -5.5084  -5.3475  -5.0885
     0.1269   0.3258   0.3855   0.4223   0.5019   0.5941   0.6806   0.7376
     0.7905   0.8272   0.9743   1.0001   1.0715   1.1223   1.1546   1.2262
     1.2450   1.2962   1.3100   1.3975   1.4752   1.5420   1.5911   1.6270
     1.6909   1.7197   1.7741   1.7802   1.8139   1.8771   1.8945   1.9323
     1.9725   2.0227   2.0925   2.1123   2.1791   2.1969   2.2586   2.2947
     2.3209   2.4009   2.4209   2.4649   2.4981   2.5630   2.6039   2.6291
     2.6472   2.6591   2.7089   2.7464   2.7991   2.8114   2.8615   2.8996
     2.9567   3.0190   3.0617   3.0715   3.1504   3.1773   3.2139   3.2404
     3.3282   3.3864   3.4318   3.4776   3.5153   3.5700   3.6510   3.7637
     3.7954   3.8506   3.8869   3.8987   4.0066   4.0711   4.1615   4.2230
     4.2678   4.2930   4.3703   4.4428   4.5126   4.5536   4.6110   4.7354
     4.7891   4.8316   4.8932   4.9584   4.9643   5.0225   5.0930   5.1883
     5.2832   5.3504   5.4303   5.5200   5.5539   5.5751   5.6234   5.6683
     5.7026   5.7959   5.8434   5.8821   5.9918   6.0528   6.1389   6.1493
     6.2185   6.2410   6.3313   6.4197   6.5037   6.5435   6.7146   6.7670
     6.9175   6.9814   7.0995   7.1699   7.1974   7.2132   7.2896   7.4354
     7.4838   7.5666   7.6408   7.6810   7.7217   7.7676   7.8312   7.9110
     7.9282   8.0637   8.0877   8.1486   8.1725

          k = 0.0000-0.4830 0.0414 ( 35766 PWs)   bands (ev):

    -7.9560  -7.7830  -7.4371  -7.4002  -7.2924  -7.1561  -7.0769  -6.9937
    -6.9666  -6.9132  -6.8804  -6.8271  -6.8083  -6.6998  -6.6477  -6.5779
    -6.5246  -6.4695  -6.3851  -6.3487  -6.2566  -6.2091  -6.1579  -6.1453
    -6.1048  -5.9697  -5.8289  -5.7523  -5.6214  -5.5119  -5.3414  -5.0910
     0.1790   0.2816   0.4020   0.4125   0.4960   0.6510   0.7029   0.7585
     0.7885   0.8267   0.8786   0.9556   1.0459   1.0839   1.1243   1.1485
     1.2575   1.2951   1.4204   1.4343   1.4633   1.5263   1.5868   1.5870
     1.6889   1.7468   1.7752   1.8107   1.8209   1.8540   1.9021   1.9864
     2.0322   2.0690   2.1432   2.1562   2.2017   2.2668   2.2968   2.3043
     2.3208   2.3597   2.4159   2.4414   2.4661   2.5134   2.5550   2.6065
     2.6304   2.6477   2.6904   2.7346   2.8062   2.8253   2.8396   2.8679
     2.9345   2.9678   2.9867   3.0445   3.1240   3.1497   3.1927   3.2728
     3.3060   3.4108   3.4358   3.4880   3.6198   3.6385   3.6463   3.7165
     3.7584   3.8594   3.8807   3.9621   4.0444   4.1377   4.1579   4.1780
     4.2389   4.3569   4.3743   4.4690   4.5239   4.5521   4.6162   4.6854
     4.7376   4.7600   4.8332   4.9196   4.9734   5.0530   5.1293   5.1764
     5.3006   5.3841   5.4365   5.5107   5.5583   5.6056   5.6819   5.7326
     5.7869   5.8242   5.8524   5.9204   5.9620   6.0075   6.0721   6.1048
     6.2369   6.3138   6.3304   6.4375   6.4420   6.5305   6.7548   6.7768
     6.9457   6.9870   7.0308   7.1016   7.2139   7.2395   7.2884   7.3765
     7.5013   7.5608   7.5784   7.6476   7.7530   7.7733   7.8037   7.9306
     7.9637   8.0436   8.0594   8.1347   8.1780

          k = 0.0000-0.4830-0.4381 ( 35816 PWs)   bands (ev):

    -7.9161  -7.6902  -7.5799  -7.5195  -7.2254  -7.1008  -7.0770  -7.0765
    -6.9567  -6.9041  -6.8557  -6.8074  -6.7686  -6.6979  -6.6721  -6.6139
    -6.5222  -6.4522  -6.3913  -6.3442  -6.2448  -6.2116  -6.1663  -6.1217
    -6.0446  -5.9904  -5.8718  -5.7285  -5.6393  -5.5148  -5.3237  -5.0935
     0.2418   0.3081   0.3818   0.3967   0.5100   0.6188   0.7222   0.7573
     0.8184   0.8996   0.9295   0.9545   1.0071   1.0551   1.0850   1.1636
     1.1771   1.2495   1.3052   1.3756   1.4278   1.4800   1.5382   1.5630
     1.5820   1.7146   1.7440   1.7706   1.8326   1.8546   1.9030   1.9764
     2.0203   2.0902   2.1368   2.1639   2.2241   2.2620   2.2764   2.3244
     2.3934   2.4270   2.4383   2.4753   2.4994   2.5499   2.5702   2.6347
     2.6578   2.6901   2.7083   2.7537   2.7863   2.8303   2.8439   2.8766
     2.9168   2.9736   3.0757   3.0860   3.1171   3.2365   3.2470   3.2912
     3.3607   3.4277   3.4568   3.4781   3.5517   3.6405   3.6707   3.7672
     3.7885   3.8352   3.8930   3.9726   4.0443   4.0934   4.1240   4.2607
     4.2966   4.3370   4.3833   4.4387   4.5054   4.6079   4.6417   4.6590
     4.6805   4.8141   4.8559   4.8871   4.9854   5.0010   5.1088   5.1326
     5.3171   5.3269   5.3457   5.4615   5.5405   5.6326   5.6976   5.7354
     5.7575   5.8427   5.8712   5.9098   5.9867   6.0363   6.0621   6.1633
     6.2202   6.2464   6.2694   6.3611   6.4193   6.5189   6.7133   6.7390
     6.8196   7.0171   7.0462   7.1152   7.1766   7.2980   7.3106   7.4044
     7.4700   7.5670   7.6645   7.6752   7.7124   7.8023   7.8166   7.8628
     7.9368   8.0511   8.0879   8.1280   8.1532

          k =-0.5000 0.1043 0.0503 ( 35740 PWs)   bands (ev):

    -7.9313  -7.7626  -7.4741  -7.4248  -7.2519  -7.1415  -7.1042  -7.0809
    -6.9790  -6.8990  -6.8465  -6.8164  -6.7535  -6.7397  -6.6719  -6.5516
    -6.5151  -6.4774  -6.4205  -6.3580  -6.2584  -6.2033  -6.1549  -6.1187
    -6.0735  -5.9838  -5.8670  -5.7343  -5.6039  -5.5205  -5.3392  -5.0660
     0.2915   0.3634   0.4286   0.4736   0.5152   0.5931   0.6446   0.7190
     0.7806   0.8465   0.9011   0.9543   1.0275   1.0538   1.1250   1.1831
     1.2203   1.3040   1.3641   1.3960   1.4535   1.4952   1.5708   1.5852
     1.6151   1.6953   1.7278   1.8075   1.8379   1.8591   1.9262   1.9480
     1.9731   2.0539   2.1051   2.1831   2.2016   2.2266   2.2571   2.3187
     2.3312   2.3892   2.4201   2.4268   2.4526   2.4821   2.5509   2.5723
     2.6365   2.6592   2.6766   2.7414   2.7783   2.7955   2.8428   2.9238
     2.9559   3.0190   3.0721   3.0887   3.1476   3.1689   3.2178   3.3032
     3.3469   3.3836   3.4461   3.5412   3.5716   3.5947   3.6526   3.6639
     3.7529   3.8667   3.9007   3.9474   4.0254   4.0893   4.1459   4.2708
     4.2910   4.3337   4.3944   4.4675   4.5082   4.6090   4.6251   4.6700
     4.7232   4.7826   4.8318   4.9103   4.9835   5.0492   5.0730   5.1634
     5.2167   5.3491   5.4434   5.4743   5.5703   5.6772   5.7257   5.7571
     5.8069   5.8547   5.8773   5.9374   5.9505   6.0967   6.1573   6.2106
     6.2571   6.3109   6.3495   6.4266   6.4782   6.5974   6.6413   6.7158
     6.8242   6.9758   7.0380   7.1222   7.2151   7.2587   7.4059   7.4266
     7.4891   7.5271   7.5997   7.6679   7.7239   7.8021   7.8358   7.9154
     7.9771   8.0561   8.0822   8.0912   8.1288

          k =-0.5000 0.1043-0.4292 ( 35842 PWs)   bands (ev):

    -7.8739  -7.6762  -7.6406  -7.4704  -7.2864  -7.1669  -7.1048  -6.9864
    -6.9656  -6.8879  -6.8322  -6.8227  -6.8070  -6.6847  -6.6578  -6.5548
    -6.5273  -6.5215  -6.3861  -6.3471  -6.2243  -6.2068  -6.1707  -6.1377
    -6.0680  -6.0022  -5.8378  -5.7688  -5.5612  -5.5230  -5.3489  -5.0614
     0.2552   0.4057   0.4279   0.4552   0.5417   0.6133   0.6853   0.7393
     0.7783   0.8921   0.9011   0.9609   0.9777   1.0605   1.0724   1.1759
     1.1954   1.2809   1.3019   1.3760   1.3932   1.4707   1.5161   1.5813
     1.6645   1.6809   1.7037   1.7897   1.8151   1.8454   1.8865   1.9327
     1.9472   2.0325   2.1001   2.1538   2.2027   2.2613   2.2810   2.3073
     2.3330   2.3404   2.3909   2.4170   2.4718   2.5101   2.5371   2.5642
     2.6285   2.6861   2.7077   2.7467   2.8175   2.8540   2.9284   2.9706
     2.9812   3.0139   3.0665   3.0852   3.1632   3.2002   3.2194   3.2736
     3.3743   3.4229   3.4926   3.5725   3.6017   3.6185   3.7373   3.7493
     3.8038   3.8413   3.9557   4.0278   4.0791   4.1362   4.1623   4.2385
     4.2587   4.3334   4.3548   4.4205   4.5171   4.5364   4.5904   4.6576
     4.6944   4.7461   4.8159   4.8865   4.9424   5.0582   5.1578   5.1773
     5.3223   5.3457   5.4328   5.4588   5.5111   5.5600   5.6798   5.7012
     5.7406   5.8768   5.9045   5.9265   6.0036   6.1013   6.1193   6.2020
     6.2664   6.2969   6.3079   6.3919   6.4867   6.5655   6.6585   6.7685
     6.8392   6.8931   6.9290   7.1318   7.1830   7.3139   7.3633   7.3995
     7.4663   7.4942   7.6743   7.6917   7.7415   7.7698   7.8493   7.9324
     7.9772   7.9974   8.0596   8.1181   8.1421

          k =-0.5000-0.3787 0.0917 ( 35794 PWs)   bands (ev):

    -7.8499  -7.7454  -7.6074  -7.4714  -7.2481  -7.1031  -7.0835  -7.0613
    -6.9707  -6.9203  -6.9075  -6.7742  -6.7582  -6.7202  -6.6863  -6.5747
    -6.5147  -6.4561  -6.3965  -6.3738  -6.2563  -6.1754  -6.1601  -6.1404
    -6.0674  -5.9952  -5.8340  -5.7465  -5.5760  -5.5225  -5.3428  -5.0681
     0.2462   0.3967   0.4165   0.4771   0.5032   0.6055   0.6170   0.7293
     0.7960   0.8701   0.8881   0.9454   0.9833   1.0433   1.1265   1.1657
     1.2232   1.2932   1.3450   1.3640   1.4375   1.4684   1.5077   1.5554
     1.6784   1.6909   1.7144   1.7811   1.8148   1.8843   1.9180   1.9649
     2.0616   2.0765   2.1295   2.1562   2.1758   2.2501   2.2676   2.2775
     2.3059   2.3922   2.4188   2.4514   2.4639   2.5028   2.5740   2.5955
     2.6320   2.6693   2.6895   2.7362   2.7742   2.8260   2.8794   2.9138
     2.9708   3.0044   3.0310   3.0945   3.1182   3.2232   3.2302   3.2645
     3.2983   3.3722   3.4807   3.5139   3.5602   3.6160   3.6448   3.7579
     3.8541   3.8797   3.9324   3.9832   4.0996   4.1164   4.1421   4.2159
     4.2506   4.3021   4.3509   4.4753   4.5101   4.6031   4.6547   4.7481
     4.7838   4.8079   4.8495   4.9324   4.9456   5.0917   5.1642   5.2094
     5.2429   5.3131   5.3804   5.4684   5.5684   5.5969   5.6140   5.7185
     5.7418   5.7944   5.9051   5.9637   6.0133   6.0610   6.1474   6.1615
     6.2010   6.3359   6.3786   6.4334   6.4586   6.5549   6.6511   6.7097
     6.7966   6.9281   7.0278   7.1056   7.1558   7.2535   7.4085   7.4251
     7.4559   7.5968   7.6541   7.6964   7.7077   7.7229   7.8462   7.8802
     7.9489   7.9841   8.0444   8.1272   8.1568

          k =-0.5000-0.3787-0.3878 ( 35790 PWs)   bands (ev):

    -7.8622  -7.6536  -7.5344  -7.4841  -7.3605  -7.2629  -7.1989  -6.9718
    -6.9477  -6.9013  -6.8414  -6.8098  -6.7573  -6.7038  -6.6573  -6.5831
    -6.5356  -6.4657  -6.3814  -6.3234  -6.2201  -6.1665  -6.1540  -6.1289
    -6.0553  -6.0084  -5.8567  -5.7490  -5.5940  -5.5249  -5.3355  -5.0671
     0.2726   0.3892   0.4551   0.5117   0.5201   0.5451   0.6808   0.7480
     0.7781   0.8065   0.8497   0.9629   1.0219   1.0368   1.0834   1.1207
     1.1782   1.2344   1.2647   1.3252   1.3774   1.4916   1.5174   1.6243
     1.6443   1.6748   1.7604   1.7715   1.8293   1.8630   1.9017   1.9670
     1.9870   2.0838   2.0953   2.1215   2.1384   2.2106   2.2364   2.3415
     2.3691   2.4110   2.4476   2.4935   2.5247   2.5472   2.5770   2.6011
     2.6385   2.6623   2.6892   2.7261   2.8125   2.8417   2.8867   2.9162
     2.9448   2.9926   3.0192   3.0974   3.1297   3.1984   3.2518   3.2882
     3.3087   3.4461   3.5083   3.5989   3.6278   3.6686   3.7436   3.7866
     3.8254   3.8791   3.9072   3.9942   4.0620   4.1411   4.2178   4.2328
     4.2713   4.3188   4.4103   4.4261   4.4976   4.5893   4.6099   4.6652
     4.7279   4.8444   4.8798   4.9514   4.9906   5.0190   5.0878   5.1572
     5.2533   5.3081   5.4204   5.4685   5.5020   5.5766   5.6286   5.7048
     5.7448   5.7840   5.8551   5.8844   5.9912   6.0457   6.1072   6.1717
     6.2282   6.2870   6.3667   6.4239   6.5223   6.5946   6.6307   6.7253
     6.7933   6.8696   7.0692   7.1325   7.1853   7.2259   7.3752   7.4002
     7.4678   7.5638   7.6449   7.6733   7.7555   7.7928   7.8614   7.9149
     7.9255   8.0317   8.0697   8.0936   8.1116

     the Fermi energy is     6.2003 ev

!    total energy              =   -1125.71609332 Ry
     Harris-Foulkes estimate   =   -1125.71609354 Ry
     estimated scf accuracy    <       0.00000029 Ry

     The total energy is the sum of the following terms:

     one-electron contribution =    -111.65588192 Ry
     hartree contribution      =     215.43059148 Ry
     xc contribution           =    -444.46101014 Ry
     ewald contribution        =    -785.03417677 Ry
     smearing contrib. (-TS)   =       0.00438402 Ry

     convergence has been achieved in  15 iterations

     Forces acting on atoms (cartesian axes, Ry/au):

     atom    1 type  1   force =     0.00120557    0.01902365   -0.01536543
     atom    2 type  1   force =    -0.01955959   -0.05938373   -0.01521504
     atom    3 type  1   force =    -0.00872340   -0.00311343    0.02088057
     atom    4 type  1   force =     0.04053617    0.00432449   -0.00474682
     atom    5 type  1   force =     0.01137273   -0.00494892   -0.02419979
     atom    6 type  1   force =    -0.00597832   -0.01330855    0.01306881
     atom    7 type  1   force =    -0.03874833   -0.03192330    0.01548016
     atom    8 type  1   force =    -0.02601126   -0.02253686    0.02233360
     atom    9 type  1   force =     0.01985364   -0.02060885   -0.00007266
     atom   10 type  1   force =    -0.00176806    0.00389973   -0.02110126
     atom   11 type  1   force =     0.01411773   -0.04367926    0.01068130
     atom   12 type  1   force =     0.01124398    0.04112703   -0.01123845
     atom   13 type  1   force =     0.00122389   -0.02313964    0.00139640
     atom   14 type  1   force =    -0.00810148    0.02673186    0.00327802
     atom   15 type  1   force =     0.00107373    0.02949950   -0.01198290
     atom   16 type  1   force =    -0.00024730   -0.00682528   -0.00792593
     atom   17 type  2   force =    -0.00573200    0.02686539   -0.00637263
     atom   18 type  2   force =    -0.00889211    0.00229929   -0.00916017
     atom   19 type  2   force =     0.02843651   -0.00809414   -0.00853644
     atom   20 type  2   force =    -0.00069600    0.00397075   -0.01016228
     atom   21 type  2   force =     0.00778852   -0.00799083   -0.02302820
     atom   22 type  2   force =     0.01076697   -0.03538853    0.00517854
     atom   23 type  2   force =    -0.00329135    0.03753760   -0.01049808
     atom   24 type  2   force =    -0.00690450    0.00646650    0.00066702
     atom   25 type  2   force =     0.02263290    0.00997309   -0.00922029
     atom   26 type  2   force =     0.00526395   -0.00366132   -0.00222453
     atom   27 type  2   force =     0.00767274    0.01097813    0.00590365
     atom   28 type  2   force =     0.00681232   -0.03257089   -0.00028337
     atom   29 type  2   force =    -0.02371272    0.00274172   -0.00991413
     atom   30 type  2   force =     0.00048928    0.01270596   -0.00608863
     atom   31 type  2   force =     0.00632981    0.04278407   -0.00875472
     atom   32 type  2   force =    -0.01484550   -0.01839992    0.01469205
     atom   33 type  2   force =     0.01080562    0.01806869    0.00970292
     atom   34 type  2   force =    -0.00046370    0.01132195    0.00467810
     atom   35 type  2   force =     0.00060712    0.02728351    0.01196125
     atom   36 type  2   force =     0.01246350   -0.01925810    0.01863770
     atom   37 type  2   force =     0.00280421    0.00209924    0.01910389
     atom   38 type  2   force =    -0.01792598   -0.00486138    0.01310565
     atom   39 type  2   force =    -0.00312476   -0.00855246   -0.01486732
     atom   40 type  2   force =    -0.01661929    0.00313247    0.02782452
     atom   41 type  2   force =    -0.00036445   -0.01125574    0.00258703
     atom   42 type  2   force =     0.00447263   -0.00633808    0.00013201
     atom   43 type  2   force =    -0.00263349    0.04088437   -0.00302046
     atom   44 type  2   force =    -0.00849428    0.01483344    0.00571771
     atom   45 type  2   force =     0.00093515   -0.01464572    0.01229007
     atom   46 type  2   force =    -0.02345989   -0.00070002   -0.00904486
     atom   47 type  2   force =     0.00998922   -0.01934273    0.02739506
     atom   48 type  2   force =     0.00739987    0.02197525   -0.02367164

     Total force =     0.204946     Total SCF correction =     0.001072
 
     init_run     :      8.86s CPU      9.10s WALL (       1 calls)
     electrons    :    239.26s CPU    244.01s WALL (       1 calls)
     forces       :      5.49s CPU      5.67s WALL (       1 calls)

     Called by init_run:
     wfcinit      :      6.66s CPU      6.79s WALL (       1 calls)
     potinit      :      0.54s CPU      0.55s WALL (       1 calls)
     hinit0       :      0.77s CPU      0.78s WALL (       1 calls)

     Called by electrons:
     c_bands      :    198.10s CPU    200.56s WALL (      15 calls)
     sum_band     :     33.72s CPU     35.40s WALL (      15 calls)
     v_of_rho     :      1.27s CPU      1.32s WALL (      16 calls)
     newd         :      5.02s CPU      5.55s WALL (      16 calls)
     mix_rho      :      1.32s CPU      1.39s WALL (      15 calls)

     Called by c_bands:
     init_us_2    :      4.87s CPU      4.89s WALL (     256 calls)
     cegterg      :    184.35s CPU    186.73s WALL (     120 calls)

     Called by sum_band:
     sum_band:bec :      0.35s CPU      0.35s WALL (     120 calls)
     addusdens    :      8.28s CPU      9.39s WALL (      15 calls)

     Called by *egterg:
     h_psi        :    100.97s CPU    102.64s WALL (     440 calls)
     s_psi        :     20.60s CPU     20.62s WALL (     440 calls)
     g_psi        :      0.50s CPU      0.51s WALL (     312 calls)
     cdiaghg      :     31.21s CPU     31.74s WALL (     432 calls)

     Called by h_psi:
     h_psi:pot    :     99.80s CPU    101.43s WALL (     440 calls)
     h_psi:calbec :     22.58s CPU     23.32s WALL (     440 calls)
     vloc_psi     :     55.54s CPU     56.37s WALL (     440 calls)
     add_vuspsi   :     21.67s CPU     21.74s WALL (     440 calls)

     General routines
     calbec       :     34.37s CPU     35.48s WALL (     592 calls)
     fft          :      1.07s CPU      1.14s WALL (     217 calls)
     ffts         :      0.59s CPU      0.64s WALL (     429 calls)
     fftw         :     62.72s CPU     63.70s WALL (  119410 calls)
     interpolate  :      0.13s CPU      0.14s WALL (      16 calls)
 
     Parallel routines
     fft_scatt_xy :      6.21s CPU      6.31s WALL (  120056 calls)
     fft_scatt_yz :     27.17s CPU     27.72s WALL (  120056 calls)
 
     PWSCF        :   4m14.34s CPU   4m19.63s WALL

 
   This run was terminated on:  23:20:11  24Dec2021            

=------------------------------------------------------------------------------=
   JOB DONE.
=------------------------------------------------------------------------------=
