
     Program PWSCF v.6.4 starts on 24Dec2021 at  1: 0:15 

     This program is part of the open-source Quantum ESPRESSO suite
     for quantum simulation of materials; please cite
         "P. Giannozzi et al., J. Phys.:Condens. Matter 21 395502 (2009);
         "P. Giannozzi et al., J. Phys.:Condens. Matter 29 465901 (2017);
          URL http://www.quantum-espresso.org", 
     in publications or presentations arising from this work. More details at
     http://www.quantum-espresso.org/quote

     Parallel version (MPI), running on    40 processors

     MPI processes distributed on     1 nodes
     R & G space division:  proc/nbgrp/npool/nimage =      40
     Waiting for input...
     Reading input from standard input
Warning: card    &IONS ignored
Warning: card      ION_DYNAMICS = 'BFGS' ignored
Warning: card   / ignored
Warning: card    &CELL ignored
Warning: card      CELL_DYNAMICS = 'BFGS', ignored
Warning: card    / ignored

     Current dimensions of program PWSCF are:
     Max number of different atomic species (ntypx) = 10
     Max number of k-points (npk) =  40000
     Max angular momentum in pseudopotentials (lmaxx) =  3

     Subspace diagonalization in iterative solution of the eigenvalue problem:
     one sub-group per band group will be used
     scalapack distributed-memory algorithm (size of sub-group:  4*  4 procs)

 
     Parallelization info
     --------------------
     sticks:   dense  smooth     PW     G-vecs:    dense   smooth      PW
     Min         141      70     19                10356     3659     523
     Max         142      71     20                10364     3664     528
     Sum        5675    2831    775               414445   146497   20981
 


     bravais-lattice index     =            0
     lattice parameter (alat)  =      13.0205  a.u.
     unit-cell volume          =    3592.9662 (a.u.)^3
     number of atoms/cell      =           21
     number of atomic types    =            2
     number of electrons       =       126.00
     number of Kohn-Sham states=           76
     kinetic-energy cutoff     =      45.0000  Ry
     charge density cutoff     =     360.0000  Ry
     convergence threshold     =      1.0E-06
     mixing beta               =       0.7000
     number of iterations used =            8  local-TF  mixing
     Exchange-correlation      = SLA PW GGX GGC ( 1  4  2  2 0 0)

     celldm(1)=  13.020541  celldm(2)=   0.000000  celldm(3)=   0.000000
     celldm(4)=   0.000000  celldm(5)=   0.000000  celldm(6)=   0.000000

     crystal axes: (cart. coord. in units of alat)
               a(1) = (   1.000000   0.000000   0.000000 )  
               a(2) = (  -0.648764   1.167789   0.000000 )  
               a(3) = (  -0.009290  -0.383376   1.393804 )  

     reciprocal axes: (cart. coord. in units 2 pi/alat)
               b(1) = (  1.000000  0.555549  0.159473 )  
               b(2) = (  0.000000  0.856319  0.235537 )  
               b(3) = (  0.000000  0.000000  0.717461 )  


     PseudoPot. # 1 for Mo read from file:
     ~/pseudo/Mo.pw91-n-van.UPF
     MD5 check sum: Not computed, couldn't open file
     Pseudo is Ultrasoft + core correction, Zval =  6.0
     Generated by new atomic code, or converted to UPF format
     Using radial grid of  965 points,  3 beta functions with: 
                l(1) =   1
                l(2) =   2
                l(3) =   2
     Q(r) pseudized with  8 coefficients,  rinner =    1.000   1.000   1.000
                                                       1.200   1.200

     PseudoPot. # 2 for S  read from file:
     ~/pseudo/S.pw91-van_ak.UPF
     MD5 check sum: Not computed, couldn't open file
     Pseudo is Ultrasoft, Zval =  6.0
     Generated by new atomic code, or converted to UPF format
     Using radial grid of  811 points,  6 beta functions with: 
                l(1) =   0
                l(2) =   0
                l(3) =   1
                l(4) =   1
                l(5) =   2
                l(6) =   2
     Q(r) pseudized with  8 coefficients,  rinner =    1.100   1.100   1.100
                                                       1.100   1.100

     atomic species   valence    mass     pseudopotential
        Mo             6.00    95.50000     Mo( 1.00)
        S              6.00    32.06500     S ( 1.00)

     No symmetry found



   Cartesian axes

     site n.     atom                  positions (alat units)
         1           Mo  tau(   1) = (  -0.3753574   0.8046302   0.2636580  )
         2           Mo  tau(   2) = (  -0.3755213   0.5993405   0.6159125  )
         3           Mo  tau(   3) = (   0.5168387  -0.1470603   0.9731395  )
         4           Mo  tau(   4) = (   0.3973705   0.2616669   0.4232935  )
         5           Mo  tau(   5) = (   0.4518741   0.5152134   0.0522809  )
         6           Mo  tau(   6) = (   0.2519137   0.6451539   0.4042761  )
         7           Mo  tau(   7) = (  -0.0173207   0.6540598   0.7807184  )
         8           S   tau(   8) = (  -0.3194563   0.7472590   0.9415519  )
         9           S   tau(   9) = (   0.3095200   0.4622003   0.7036454  )
        10           S   tau(  10) = (   0.4956656   0.0264742   0.6756802  )
        11           S   tau(  11) = (  -0.1609283   0.3411304   0.7490017  )
        12           S   tau(  12) = (   0.6849026   0.4244905   0.3273508  )
        13           S   tau(  13) = (   0.3148992   0.8317016   0.1033818  )
        14           S   tau(  14) = (  -0.5505067   0.8969023   0.5520092  )
        15           S   tau(  15) = (   0.3053718   0.1000428   1.1169382  )
        16           S   tau(  16) = (   0.1848888   0.8970973   0.9358730  )
        17           S   tau(  17) = (  -0.0536953   0.7862595   0.4780837  )
        18           S   tau(  18) = (  -0.2550583   0.3156446   1.3521726  )
        19           S   tau(  19) = (   0.3807733  -0.0342344   0.2274401  )
        20           S   tau(  20) = (   0.6305258  -0.1556570   1.3080264  )
        21           S   tau(  21) = (   0.1638837   0.3753008   0.2010098  )

     number of k points=     8  Marzari-Vanderbilt smearing, width (Ry)=  0.0200
                       cart. coord. in units 2pi/alat
        k(    1) = (   0.0000000   0.0000000   0.0000000), wk =   0.1666667
        k(    2) = (   0.0000000   0.0000000  -0.3587306), wk =   0.1666667
        k(    3) = (   0.0000000  -0.4281595  -0.1177685), wk =   0.1666667
        k(    4) = (   0.0000000  -0.4281595  -0.4764991), wk =   0.1666667
        k(    5) = (   0.3333333   0.1851828   0.0531576), wk =   0.3333333
        k(    6) = (   0.3333333   0.1851828  -0.3055730), wk =   0.3333333
        k(    7) = (   0.3333333  -0.2429766  -0.0646109), wk =   0.3333333
        k(    8) = (   0.3333333  -0.2429766  -0.4233415), wk =   0.3333333

     Dense  grid:   414445 G-vectors     FFT dimensions: (  80, 108, 120)

     Smooth grid:   146497 G-vectors     FFT dimensions: (  60,  75,  81)

     Estimated max dynamical RAM per process >      59.01 MB

     Estimated total dynamical RAM >       2.31 GB

     Initial potential from superposition of free atoms

     starting charge  125.98896, renormalised to  126.00000
     Starting wfcs are  119 randomized atomic wfcs

     total cpu time spent up to now is        2.9 secs

     Self-consistent Calculation

     iteration #  1     ecut=    45.00 Ry     beta= 0.70
     Davidson diagonalization with overlap
     ethr =  1.00E-02,  avg # of iterations =  2.0

     total cpu time spent up to now is        6.1 secs

     total energy              =    -491.28712340 Ry
     Harris-Foulkes estimate   =    -493.34750494 Ry
     estimated scf accuracy    <       5.58135953 Ry

     iteration #  2     ecut=    45.00 Ry     beta= 0.70
     Davidson diagonalization with overlap
     ethr =  4.43E-03,  avg # of iterations =  2.0

     total cpu time spent up to now is        9.2 secs

     total energy              =    -492.08547242 Ry
     Harris-Foulkes estimate   =    -492.66707722 Ry
     estimated scf accuracy    <       2.98829608 Ry

     iteration #  3     ecut=    45.00 Ry     beta= 0.70
     Davidson diagonalization with overlap
     ethr =  2.37E-03,  avg # of iterations =  1.0

     total cpu time spent up to now is       11.6 secs

     total energy              =    -492.38328945 Ry
     Harris-Foulkes estimate   =    -492.41780105 Ry
     estimated scf accuracy    <       0.22322152 Ry

     iteration #  4     ecut=    45.00 Ry     beta= 0.70
     Davidson diagonalization with overlap
     ethr =  1.77E-04,  avg # of iterations =  3.0

     total cpu time spent up to now is       14.9 secs

     total energy              =    -492.40518618 Ry
     Harris-Foulkes estimate   =    -492.42518239 Ry
     estimated scf accuracy    <       0.06005252 Ry

     iteration #  5     ecut=    45.00 Ry     beta= 0.70
     Davidson diagonalization with overlap
     ethr =  4.77E-05,  avg # of iterations =  2.8

     total cpu time spent up to now is       18.0 secs

     total energy              =    -492.41327646 Ry
     Harris-Foulkes estimate   =    -492.41786487 Ry
     estimated scf accuracy    <       0.03688697 Ry

     iteration #  6     ecut=    45.00 Ry     beta= 0.70
     Davidson diagonalization with overlap
     ethr =  2.93E-05,  avg # of iterations =  1.0

     total cpu time spent up to now is       20.4 secs

     total energy              =    -492.41424806 Ry
     Harris-Foulkes estimate   =    -492.41581668 Ry
     estimated scf accuracy    <       0.01185040 Ry

     iteration #  7     ecut=    45.00 Ry     beta= 0.70
     Davidson diagonalization with overlap
     ethr =  9.41E-06,  avg # of iterations =  5.8

     total cpu time spent up to now is       23.9 secs

     total energy              =    -492.41466826 Ry
     Harris-Foulkes estimate   =    -492.41502293 Ry
     estimated scf accuracy    <       0.00172890 Ry

     iteration #  8     ecut=    45.00 Ry     beta= 0.70
     Davidson diagonalization with overlap
     ethr =  1.37E-06,  avg # of iterations =  6.9

     total cpu time spent up to now is       29.2 secs

     total energy              =    -492.41507469 Ry
     Harris-Foulkes estimate   =    -492.41519472 Ry
     estimated scf accuracy    <       0.00085650 Ry

     iteration #  9     ecut=    45.00 Ry     beta= 0.70
     Davidson diagonalization with overlap
     ethr =  6.80E-07,  avg # of iterations =  1.0

     total cpu time spent up to now is       31.6 secs

     total energy              =    -492.41510349 Ry
     Harris-Foulkes estimate   =    -492.41512525 Ry
     estimated scf accuracy    <       0.00013967 Ry

     iteration # 10     ecut=    45.00 Ry     beta= 0.70
     Davidson diagonalization with overlap
     ethr =  1.11E-07,  avg # of iterations =  3.9

     total cpu time spent up to now is       35.0 secs

     total energy              =    -492.41512424 Ry
     Harris-Foulkes estimate   =    -492.41513054 Ry
     estimated scf accuracy    <       0.00006200 Ry

     iteration # 11     ecut=    45.00 Ry     beta= 0.70
     Davidson diagonalization with overlap
     ethr =  4.92E-08,  avg # of iterations =  1.0

     total cpu time spent up to now is       37.5 secs

     total energy              =    -492.41512491 Ry
     Harris-Foulkes estimate   =    -492.41512707 Ry
     estimated scf accuracy    <       0.00001318 Ry

     iteration # 12     ecut=    45.00 Ry     beta= 0.70
     Davidson diagonalization with overlap
     ethr =  1.05E-08,  avg # of iterations =  3.9

     total cpu time spent up to now is       40.7 secs

     total energy              =    -492.41512657 Ry
     Harris-Foulkes estimate   =    -492.41512680 Ry
     estimated scf accuracy    <       0.00000162 Ry

     iteration # 13     ecut=    45.00 Ry     beta= 0.70
     Davidson diagonalization with overlap
     ethr =  1.29E-09,  avg # of iterations =  3.4

     total cpu time spent up to now is       43.9 secs

     End of self-consistent calculation

          k = 0.0000 0.0000 0.0000 ( 18317 PWs)   bands (ev):

    -9.7337  -9.0705  -8.9653  -8.7589  -8.6807  -8.3953  -8.2042  -8.1198
    -7.8996  -7.6821  -7.5274  -7.4283  -7.2817  -7.0512  -1.5344  -1.1355
    -1.1251  -0.9395  -0.8751  -0.6561  -0.5618  -0.4881  -0.3661  -0.2537
    -0.1494   0.0309   0.0783   0.2014   0.2761   0.4230   0.5129   0.5467
     0.6228   0.7210   0.8663   0.9838   1.0125   1.1286   1.2065   1.3761
     1.4478   1.6222   1.6551   1.8780   1.9428   2.2263   2.2952   2.4245
     2.5661   2.7214   2.8524   2.9412   2.9988   3.1668   3.1968   3.3585
     3.4746   3.5487   3.8065   3.9281   4.0328   4.1353   4.2318   4.4288
     4.4862   4.6483   4.9497   5.1525   5.2345   5.3996   5.5262   5.6935
     5.9163   6.1092   6.2113   6.2768

          k = 0.0000 0.0000-0.3587 ( 18294 PWs)   bands (ev):

    -9.7165  -9.0962  -8.9600  -8.7896  -8.6706  -8.4019  -8.2609  -8.0197
    -7.9095  -7.6445  -7.5587  -7.4047  -7.3038  -7.0588  -1.5143  -1.1627
    -1.1403  -0.9589  -0.8780  -0.6762  -0.5757  -0.4867  -0.3084  -0.2350
    -0.1463  -0.0061   0.0606   0.2421   0.3045   0.3954   0.4823   0.5181
     0.6364   0.7704   0.8804   0.9776   1.0548   1.1244   1.1658   1.2976
     1.4219   1.6433   1.7518   1.9153   2.0712   2.1096   2.2209   2.5460
     2.5742   2.6597   2.7902   2.9642   3.0369   3.1112   3.2116   3.3936
     3.4350   3.6558   3.7546   3.9118   3.9828   4.0737   4.2157   4.4766
     4.5870   4.6691   4.9307   5.0534   5.1406   5.4247   5.5366   5.7199
     6.0120   6.0171   6.2135   6.3034

          k = 0.0000-0.4282-0.1178 ( 18302 PWs)   bands (ev):

    -9.6622  -9.0891  -9.0381  -8.7929  -8.6796  -8.4481  -8.2256  -8.0259
    -7.8982  -7.6357  -7.4891  -7.4641  -7.3058  -7.0417  -1.5723  -1.2972
    -1.1791  -0.9825  -0.7889  -0.5729  -0.5392  -0.3895  -0.2232  -0.2066
    -0.1466   0.0512   0.1174   0.1752   0.2943   0.4152   0.5019   0.5450
     0.7125   0.7631   0.8660   0.9334   0.9838   1.1058   1.2112   1.3354
     1.4189   1.5311   1.7380   1.7470   2.0428   2.0712   2.2300   2.4494
     2.5346   2.6489   2.6888   2.8741   3.1052   3.2032   3.3006   3.4493
     3.5077   3.6673   3.7754   3.9548   3.9932   4.1045   4.1723   4.3831
     4.4473   4.7034   4.8546   5.0315   5.2150   5.4473   5.6327   5.8035
     5.8795   5.9962   6.1313   6.1940

          k = 0.0000-0.4282-0.4765 ( 18306 PWs)   bands (ev):

    -9.6676  -9.0701  -9.0379  -8.7699  -8.6947  -8.4548  -8.1899  -8.1166
    -7.9014  -7.6543  -7.4850  -7.4391  -7.2687  -7.0405  -1.5739  -1.2777
    -1.1306  -0.9720  -0.9379  -0.6337  -0.4943  -0.4319  -0.1900  -0.1851
    -0.1045   0.0108   0.1477   0.2091   0.2722   0.3779   0.4492   0.6957
     0.7412   0.7751   0.8071   0.9101   1.0262   1.0868   1.2788   1.3793
     1.5426   1.5722   1.6145   1.8308   1.9543   2.0043   2.1972   2.3897
     2.5196   2.6302   2.7071   2.8764   2.9273   3.1507   3.2609   3.3743
     3.4628   3.5348   3.8713   4.0146   4.0758   4.1847   4.3583   4.4971
     4.5362   4.7214   4.8542   5.0151   5.1850   5.4801   5.6397   5.8144
     5.8742   5.9143   6.1532   6.2117

          k = 0.3333 0.1852 0.0532 ( 18315 PWs)   bands (ev):

    -9.5583  -9.1503  -8.9932  -8.7841  -8.7076  -8.4827  -8.1853  -8.1294
    -7.9325  -7.6310  -7.5132  -7.4288  -7.3197  -7.0348  -1.4117  -1.2705
    -1.0354  -1.0069  -0.8959  -0.6836  -0.5669  -0.4297  -0.2913  -0.2152
    -0.1138   0.0606   0.1267   0.1830   0.3126   0.4236   0.5307   0.6030
     0.7129   0.7335   0.8321   0.9355   1.0415   1.2172   1.2846   1.3962
     1.4438   1.5658   1.6894   1.7425   1.8828   2.1719   2.2547   2.4313
     2.4987   2.6417   2.7318   2.9022   2.9931   3.1388   3.2719   3.3958
     3.4778   3.6278   3.7793   3.8939   4.0040   4.1267   4.1874   4.4373
     4.5047   4.6085   4.9293   5.0920   5.2580   5.3925   5.4714   5.7072
     5.8344   6.0461   6.1793   6.2083

          k = 0.3333 0.1852-0.3056 ( 18333 PWs)   bands (ev):

    -9.5514  -9.1477  -8.9980  -8.7967  -8.6950  -8.4853  -8.2600  -8.0523
    -7.9298  -7.6731  -7.4990  -7.4276  -7.2922  -7.0396  -1.4162  -1.2817
    -1.0718  -0.9756  -0.8741  -0.7013  -0.5961  -0.4297  -0.2323  -0.1784
    -0.1124   0.0344   0.0990   0.2051   0.2938   0.4667   0.5647   0.6323
     0.6811   0.7274   0.7931   0.9884   1.0197   1.0816   1.2535   1.3927
     1.4685   1.6435   1.6857   1.7954   1.9486   2.0748   2.1465   2.3828
     2.5316   2.6149   2.8083   2.8990   2.9949   3.1747   3.2243   3.3345
     3.4730   3.6321   3.8245   3.8823   3.9674   4.2599   4.3004   4.4159
     4.5556   4.6433   4.8855   5.0263   5.2347   5.3966   5.4675   5.7561
     5.7949   6.0596   6.1721   6.2160

          k = 0.3333-0.2430-0.0646 ( 18288 PWs)   bands (ev):

    -9.5597  -9.1384  -9.0204  -8.8129  -8.6871  -8.4486  -8.2353  -8.1022
    -7.8493  -7.6686  -7.5627  -7.3997  -7.3146  -7.0509  -1.4252  -1.2922
    -1.1418  -0.9325  -0.8478  -0.6691  -0.5711  -0.4092  -0.2750  -0.1292
    -0.0654   0.0115   0.1002   0.1877   0.3049   0.4540   0.5230   0.5891
     0.6514   0.7085   0.8202   0.9317   1.0639   1.1917   1.2253   1.3289
     1.3567   1.4805   1.7016   1.8630   1.9817   2.1773   2.1935   2.4472
     2.5823   2.6971   2.7266   2.9647   3.0850   3.1675   3.2867   3.4228
     3.5365   3.6365   3.7347   3.8243   3.9321   4.0769   4.1942   4.3481
     4.4585   4.5378   4.8790   5.1389   5.2959   5.4234   5.5140   5.7098
     5.7781   5.9771   6.1881   6.2691

          k = 0.3333-0.2430-0.4233 ( 18322 PWs)   bands (ev):

    -9.5527  -9.1353  -9.0223  -8.8017  -8.7119  -8.4580  -8.1907  -8.1547
    -7.8585  -7.6501  -7.5552  -7.4232  -7.2857  -7.0443  -1.4112  -1.2777
    -1.1361  -0.9608  -0.8782  -0.7449  -0.5628  -0.3852  -0.2307  -0.1398
    -0.0871   0.0283   0.0732   0.1562   0.3151   0.3771   0.5196   0.5672
     0.6996   0.8034   0.8272   0.9349   1.0528   1.1796   1.2019   1.3872
     1.5317   1.6105   1.7110   1.8361   1.9260   2.1396   2.2204   2.3043
     2.5419   2.6474   2.7621   2.9671   3.0586   3.1168   3.1500   3.4040
     3.4875   3.6363   3.6606   3.9033   3.9385   4.1701   4.3285   4.4370
     4.5753   4.6300   4.8320   5.0639   5.2424   5.3738   5.5318   5.7094
     5.8922   5.9641   6.0746   6.2468

     the Fermi energy is     4.3311 ev

!    total energy              =    -492.41512657 Ry
     Harris-Foulkes estimate   =    -492.41512686 Ry
     estimated scf accuracy    <       0.00000037 Ry

     The total energy is the sum of the following terms:

     one-electron contribution =    -142.54597610 Ry
     hartree contribution      =     132.91619623 Ry
     xc contribution           =    -194.06675968 Ry
     ewald contribution        =    -288.72056366 Ry
     smearing contrib. (-TS)   =       0.00197664 Ry

     convergence has been achieved in  13 iterations

     Forces acting on atoms (cartesian axes, Ry/au):

     atom    1 type  1   force =     0.01079651    0.00111758   -0.01984983
     atom    2 type  1   force =    -0.04546669   -0.01091673   -0.01206169
     atom    3 type  1   force =     0.01236972    0.06912262    0.00806236
     atom    4 type  1   force =     0.03169905   -0.00908893    0.03204190
     atom    5 type  1   force =     0.05268934   -0.02863915   -0.01958350
     atom    6 type  1   force =     0.03543683    0.02254362    0.01168381
     atom    7 type  1   force =     0.06615881   -0.02965250    0.01074688
     atom    8 type  2   force =     0.00408336   -0.01338231    0.01524356
     atom    9 type  2   force =    -0.01251166    0.00652759    0.01542647
     atom   10 type  2   force =    -0.00694831   -0.01782475    0.01581466
     atom   11 type  2   force =     0.00741087    0.03305573    0.01041589
     atom   12 type  2   force =    -0.01018301   -0.04591487   -0.03405539
     atom   13 type  2   force =    -0.02183002    0.01841458   -0.00351552
     atom   14 type  2   force =    -0.00969547    0.02514468    0.02307240
     atom   15 type  2   force =     0.02024058   -0.01435813    0.00997652
     atom   16 type  2   force =    -0.02692568   -0.02631994   -0.01800107
     atom   17 type  2   force =    -0.01545432    0.01101408   -0.02283749
     atom   18 type  2   force =    -0.01818070    0.00184021    0.01049660
     atom   19 type  2   force =    -0.00540241    0.00439373    0.00242798
     atom   20 type  2   force =    -0.03420516    0.01583278   -0.01545918
     atom   21 type  2   force =    -0.03408163   -0.01290991   -0.02004539

     Total force =     0.191386     Total SCF correction =     0.001014
 
     init_run     :      2.12s CPU      2.20s WALL (       1 calls)
     electrons    :     40.18s CPU     40.96s WALL (       1 calls)
     forces       :      1.04s CPU      1.06s WALL (       1 calls)

     Called by init_run:
     wfcinit      :      1.18s CPU      1.21s WALL (       1 calls)
     potinit      :      0.27s CPU      0.27s WALL (       1 calls)
     hinit0       :      0.38s CPU      0.39s WALL (       1 calls)

     Called by electrons:
     c_bands      :     31.23s CPU     31.83s WALL (      13 calls)
     sum_band     :      6.38s CPU      6.52s WALL (      13 calls)
     v_of_rho     :      0.45s CPU      0.48s WALL (      14 calls)
     newd         :      1.71s CPU      1.74s WALL (      14 calls)
     mix_rho      :      0.48s CPU      0.48s WALL (      13 calls)

     Called by c_bands:
     init_us_2    :      0.65s CPU      0.66s WALL (     224 calls)
     cegterg      :     28.79s CPU     29.36s WALL (     104 calls)

     Called by sum_band:
     sum_band:bec :      0.06s CPU      0.06s WALL (     104 calls)
     addusdens    :      2.38s CPU      2.41s WALL (      13 calls)

     Called by *egterg:
     h_psi        :     16.41s CPU     16.85s WALL (     412 calls)
     s_psi        :      2.03s CPU      2.04s WALL (     412 calls)
     g_psi        :      0.05s CPU      0.05s WALL (     300 calls)
     cdiaghg      :      7.23s CPU      7.35s WALL (     404 calls)

     Called by h_psi:
     h_psi:pot    :     16.35s CPU     16.79s WALL (     412 calls)
     h_psi:calbec :      2.24s CPU      2.33s WALL (     412 calls)
     vloc_psi     :     12.03s CPU     12.36s WALL (     412 calls)
     add_vuspsi   :      2.07s CPU      2.09s WALL (     412 calls)

     General routines
     calbec       :      3.28s CPU      3.42s WALL (     548 calls)
     fft          :      0.37s CPU      0.39s WALL (     191 calls)
     ffts         :      0.26s CPU      0.26s WALL (     381 calls)
     fftw         :     13.47s CPU     13.83s WALL (   47134 calls)
     interpolate  :      0.04s CPU      0.04s WALL (      14 calls)
 
     Parallel routines
     fft_scatt_xy :      1.33s CPU      1.36s WALL (   47706 calls)
     fft_scatt_yz :      5.54s CPU      5.71s WALL (   47706 calls)
 
     PWSCF        :     44.05s CPU     45.02s WALL

 
   This run was terminated on:   1: 1: 0  24Dec2021            

=------------------------------------------------------------------------------=
   JOB DONE.
=------------------------------------------------------------------------------=
