
     Program PWSCF v.6.4 starts on 17Nov2021 at 10:41:48 

     This program is part of the open-source Quantum ESPRESSO suite
     for quantum simulation of materials; please cite
         "P. Giannozzi et al., J. Phys.:Condens. Matter 21 395502 (2009);
         "P. Giannozzi et al., J. Phys.:Condens. Matter 29 465901 (2017);
          URL http://www.quantum-espresso.org", 
     in publications or presentations arising from this work. More details at
     http://www.quantum-espresso.org/quote

     Parallel version (MPI), running on    40 processors

     MPI processes distributed on     1 nodes
     R & G space division:  proc/nbgrp/npool/nimage =      40
     Waiting for input...
     Reading input from standard input
Warning: card    &IONS ignored
Warning: card      ION_DYNAMICS = 'BFGS' ignored
Warning: card   / ignored
Warning: card    &CELL ignored
Warning: card      CELL_DYNAMICS = 'BFGS', ignored
Warning: card    / ignored

     Current dimensions of program PWSCF are:
     Max number of different atomic species (ntypx) = 10
     Max number of k-points (npk) =  40000
     Max angular momentum in pseudopotentials (lmaxx) =  3

     Subspace diagonalization in iterative solution of the eigenvalue problem:
     one sub-group per band group will be used
     scalapack distributed-memory algorithm (size of sub-group:  4*  4 procs)

 
     Parallelization info
     --------------------
     sticks:   dense  smooth     PW     G-vecs:    dense   smooth      PW
     Min          86      43     11                 9835     3473     497
     Max          87      44     12                 9846     3483     511
     Sum        3463    1733    475               393535   139077   20269
 


     bravais-lattice index     =            0
     lattice parameter (alat)  =      11.8142  a.u.
     unit-cell volume          =    3410.8581 (a.u.)^3
     number of atoms/cell      =           18
     number of atomic types    =            2
     number of electrons       =       108.00
     number of Kohn-Sham states=           65
     kinetic-energy cutoff     =      45.0000  Ry
     charge density cutoff     =     360.0000  Ry
     convergence threshold     =      1.0E-06
     mixing beta               =       0.7000
     number of iterations used =            8  local-TF  mixing
     Exchange-correlation      = SLA PW GGX GGC ( 1  4  2  2 0 0)

     celldm(1)=  11.814158  celldm(2)=   0.000000  celldm(3)=   0.000000
     celldm(4)=   0.000000  celldm(5)=   0.000000  celldm(6)=   0.000000

     crystal axes: (cart. coord. in units of alat)
               a(1) = (   1.000000   0.000000   0.000000 )  
               a(2) = (   0.495261   0.865778   0.000000 )  
               a(3) = (   0.292063   0.315850   2.389180 )  

     reciprocal axes: (cart. coord. in units 2 pi/alat)
               b(1) = (  1.000000 -0.572042 -0.046620 )  
               b(2) = (  0.000000  1.155031 -0.152695 )  
               b(3) = (  0.000000  0.000000  0.418554 )  


     PseudoPot. # 1 for Mo read from file:
     ~/pseudo/Mo.pw91-n-van.UPF
     MD5 check sum: Not computed, couldn't open file
     Pseudo is Ultrasoft + core correction, Zval =  6.0
     Generated by new atomic code, or converted to UPF format
     Using radial grid of  965 points,  3 beta functions with: 
                l(1) =   1
                l(2) =   2
                l(3) =   2
     Q(r) pseudized with  8 coefficients,  rinner =    1.000   1.000   1.000
                                                       1.200   1.200

     PseudoPot. # 2 for S  read from file:
     ~/pseudo/S.pw91-van_ak.UPF
     MD5 check sum: Not computed, couldn't open file
     Pseudo is Ultrasoft, Zval =  6.0
     Generated by new atomic code, or converted to UPF format
     Using radial grid of  811 points,  6 beta functions with: 
                l(1) =   0
                l(2) =   0
                l(3) =   1
                l(4) =   1
                l(5) =   2
                l(6) =   2
     Q(r) pseudized with  8 coefficients,  rinner =    1.100   1.100   1.100
                                                       1.100   1.100

     atomic species   valence    mass     pseudopotential
        Mo             6.00    95.50000     Mo( 1.00)
        S              6.00    32.06500     S ( 1.00)

     No symmetry found



   Cartesian axes

     site n.     atom                  positions (alat units)
         1           Mo  tau(   1) = (   0.8130034   0.7959982   0.8106912  )
         2           Mo  tau(   2) = (   1.3132791   0.7949525   0.8110507  )
         3           Mo  tau(   3) = (   1.0641569   0.3625454   0.8109909  )
         4           Mo  tau(   4) = (   0.5647983   0.3626161   0.8111289  )
         5           Mo  tau(   5) = (   0.7553604   0.7385012   2.2000947  )
         6           Mo  tau(   6) = (   0.7692829   0.8519773   1.7848594  )
         7           S   tau(   7) = (   1.0638664   0.6512498   0.5527360  )
         8           S   tau(   8) = (   0.5641726   0.6509421   0.5526214  )
         9           S   tau(   9) = (   0.3152607   0.2193181   0.5528257  )
        10           S   tau(  10) = (   0.8148936   0.2178098   0.5529573  )
        11           S   tau(  11) = (   0.9000364   0.5169894   1.9048696  )
        12           S   tau(  12) = (   1.1607383   0.3051588   1.6758815  )
        13           S   tau(  13) = (   1.0627827   0.6511099   1.0693246  )
        14           S   tau(  14) = (   0.5639286   0.6512261   1.0698792  )
        15           S   tau(  15) = (   0.3143969   0.2184296   1.0691962  )
        16           S   tau(  16) = (   0.8146517   0.2173187   1.0700482  )
        17           S   tau(  17) = (   1.4656402   0.8043447   2.0006702  )
        18           S   tau(  18) = (   0.9484388   1.0128967   2.0759040  )

     number of k points=     5  Marzari-Vanderbilt smearing, width (Ry)=  0.0200
                       cart. coord. in units 2pi/alat
        k(    1) = (   0.0000000   0.0000000   0.0000000), wk =   0.2222222
        k(    2) = (   0.0000000   0.3850103  -0.0508985), wk =   0.4444444
        k(    3) = (   0.3333333  -0.1906806  -0.0155400), wk =   0.4444444
        k(    4) = (   0.3333333   0.1943296  -0.0664385), wk =   0.4444444
        k(    5) = (   0.3333333  -0.5756909   0.0353585), wk =   0.4444444

     Dense  grid:   393535 G-vectors     FFT dimensions: (  72,  72, 180)

     Smooth grid:   139077 G-vectors     FFT dimensions: (  54,  54, 125)

     Estimated max dynamical RAM per process >      52.27 MB

     Estimated total dynamical RAM >       2.04 GB

     Initial potential from superposition of free atoms

     starting charge  107.99054, renormalised to  108.00000
     Starting wfcs are  102 randomized atomic wfcs

     total cpu time spent up to now is        2.4 secs

     Self-consistent Calculation

     iteration #  1     ecut=    45.00 Ry     beta= 0.70
     Davidson diagonalization with overlap
     ethr =  1.00E-02,  avg # of iterations =  2.0

     total cpu time spent up to now is        4.3 secs

     total energy              =    -421.37536811 Ry
     Harris-Foulkes estimate   =    -422.86349023 Ry
     estimated scf accuracy    <       4.08986206 Ry

     iteration #  2     ecut=    45.00 Ry     beta= 0.70
     Davidson diagonalization with overlap
     ethr =  3.79E-03,  avg # of iterations =  2.8

     total cpu time spent up to now is        6.2 secs

     total energy              =    -421.96405397 Ry
     Harris-Foulkes estimate   =    -422.28395626 Ry
     estimated scf accuracy    <       1.58049737 Ry

     iteration #  3     ecut=    45.00 Ry     beta= 0.70
     Davidson diagonalization with overlap
     ethr =  1.46E-03,  avg # of iterations =  2.2

     total cpu time spent up to now is        7.9 secs

     total energy              =    -422.08730918 Ry
     Harris-Foulkes estimate   =    -422.17482571 Ry
     estimated scf accuracy    <       0.99630466 Ry

     iteration #  4     ecut=    45.00 Ry     beta= 0.70
     Davidson diagonalization with overlap
     ethr =  9.23E-04,  avg # of iterations =  1.0

     total cpu time spent up to now is        9.4 secs

     total energy              =    -422.10705133 Ry
     Harris-Foulkes estimate   =    -422.14214753 Ry
     estimated scf accuracy    <       0.17393124 Ry

     iteration #  5     ecut=    45.00 Ry     beta= 0.70
     Davidson diagonalization with overlap
     ethr =  1.61E-04,  avg # of iterations =  2.2

     total cpu time spent up to now is       11.1 secs

     total energy              =    -422.10776802 Ry
     Harris-Foulkes estimate   =    -422.12522894 Ry
     estimated scf accuracy    <       0.09951806 Ry

     iteration #  6     ecut=    45.00 Ry     beta= 0.70
     Davidson diagonalization with overlap
     ethr =  9.21E-05,  avg # of iterations =  5.8

     total cpu time spent up to now is       13.4 secs

     total energy              =    -422.11690198 Ry
     Harris-Foulkes estimate   =    -422.11934064 Ry
     estimated scf accuracy    <       0.01866567 Ry

     iteration #  7     ecut=    45.00 Ry     beta= 0.70
     Davidson diagonalization with overlap
     ethr =  1.73E-05,  avg # of iterations =  6.4

     total cpu time spent up to now is       15.8 secs

     total energy              =    -422.11881507 Ry
     Harris-Foulkes estimate   =    -422.11909984 Ry
     estimated scf accuracy    <       0.00386492 Ry

     iteration #  8     ecut=    45.00 Ry     beta= 0.70
     Davidson diagonalization with overlap
     ethr =  3.58E-06,  avg # of iterations =  4.6

     total cpu time spent up to now is       17.8 secs

     total energy              =    -422.11880108 Ry
     Harris-Foulkes estimate   =    -422.11917356 Ry
     estimated scf accuracy    <       0.00219703 Ry

     iteration #  9     ecut=    45.00 Ry     beta= 0.70
     Davidson diagonalization with overlap
     ethr =  2.03E-06,  avg # of iterations =  4.0

     total cpu time spent up to now is       19.7 secs

     total energy              =    -422.11896824 Ry
     Harris-Foulkes estimate   =    -422.11899218 Ry
     estimated scf accuracy    <       0.00022863 Ry

     iteration # 10     ecut=    45.00 Ry     beta= 0.70
     Davidson diagonalization with overlap
     ethr =  2.12E-07,  avg # of iterations =  5.0

     total cpu time spent up to now is       22.0 secs

     total energy              =    -422.11899704 Ry
     Harris-Foulkes estimate   =    -422.11900593 Ry
     estimated scf accuracy    <       0.00004810 Ry

     iteration # 11     ecut=    45.00 Ry     beta= 0.70
     Davidson diagonalization with overlap
     ethr =  4.45E-08,  avg # of iterations =  2.6

     total cpu time spent up to now is       23.8 secs

     total energy              =    -422.11899659 Ry
     Harris-Foulkes estimate   =    -422.11900435 Ry
     estimated scf accuracy    <       0.00002981 Ry

     iteration # 12     ecut=    45.00 Ry     beta= 0.70
     Davidson diagonalization with overlap
     ethr =  2.76E-08,  avg # of iterations =  2.8

     total cpu time spent up to now is       25.6 secs

     total energy              =    -422.11899902 Ry
     Harris-Foulkes estimate   =    -422.11899953 Ry
     estimated scf accuracy    <       0.00000405 Ry

     iteration # 13     ecut=    45.00 Ry     beta= 0.70
     Davidson diagonalization with overlap
     ethr =  3.75E-09,  avg # of iterations =  4.6

     total cpu time spent up to now is       27.9 secs

     total energy              =    -422.11899957 Ry
     Harris-Foulkes estimate   =    -422.11899986 Ry
     estimated scf accuracy    <       0.00000202 Ry

     iteration # 14     ecut=    45.00 Ry     beta= 0.70
     Davidson diagonalization with overlap
     ethr =  1.87E-09,  avg # of iterations =  1.8

     total cpu time spent up to now is       29.4 secs

     End of self-consistent calculation

          k = 0.0000 0.0000 0.0000 ( 17421 PWs)   bands (ev):

   -11.1563 -10.0247  -9.1444  -9.1313  -9.1181  -9.1026  -9.0142  -8.9994
    -8.9819  -8.4281  -8.3339  -6.9753  -2.8155  -2.8095  -2.8043  -2.6258
    -1.9278  -1.9193  -1.9160  -1.0664  -1.0502  -1.0442  -0.9977  -0.3212
    -0.0987   0.0354   0.0696   0.1081   0.2153   0.5086   0.6704   0.6812
     0.7435   0.9214   0.9326   0.9652   1.0007   1.0525   1.3671   1.8390
     1.8816   2.0105   2.3112   2.3295   2.3475   2.3776   2.3850   2.4101
     2.4459   2.7031   2.7800   3.1782   3.6580   4.4768   4.5506   4.8446
     5.0306   5.4047   5.4532   5.4567   5.4621   5.6201   5.8090   5.8938
     5.9908

          k = 0.0000 0.3850-0.0509 ( 17389 PWs)   bands (ev):

   -10.7443  -9.8105  -9.7584  -9.3066  -9.1689  -9.1532  -8.9973  -8.9746
    -8.8756  -8.4192  -8.3647  -7.3497  -2.3117  -2.2949  -2.1691  -2.1532
    -1.8860  -1.8788  -1.2159  -0.8391  -0.7824  -0.7676  -0.4235  -0.3459
    -0.2164  -0.1867  -0.1285  -0.1026   0.0955   0.1429   0.4127   0.4263
     0.5375   0.7404   0.7808   1.0587   1.1133   1.1569   1.1607   1.1813
     1.2476   1.2742   1.9240   1.9717   2.0479   2.2880   2.4539   2.5052
     2.6625   2.6768   2.6987   3.1195   3.8189   4.4986   4.5322   4.7748
     5.0169   5.1655   5.2383   5.2779   5.2991   5.3479   5.4084   5.5536
     5.6954

          k = 0.3333-0.1907-0.0155 ( 17390 PWs)   bands (ev):

   -10.7469  -9.8123  -9.7686  -9.3169  -9.1588  -9.1468  -8.9856  -8.9710
    -8.8530  -8.4453  -8.3773  -7.3400  -2.3157  -2.3053  -2.1719  -2.1544
    -1.8917  -1.8872  -1.2200  -0.8531  -0.7789  -0.7643  -0.3968  -0.2837
    -0.2193  -0.2036  -0.1233  -0.0696   0.0999   0.1852   0.4021   0.4477
     0.4788   0.7533   0.7755   0.9398   1.1059   1.1675   1.1830   1.1845
     1.2374   1.2994   1.9098   1.9618   2.0737   2.1817   2.4930   2.6069
     2.6578   2.6623   2.7868   3.1313   3.8106   4.4866   4.5581   4.7992
     4.9138   5.1077   5.2389   5.2624   5.2935   5.3364   5.3614   5.5758
     5.7210

          k = 0.3333 0.1943-0.0664 ( 17397 PWs)   bands (ev):

   -10.7423  -9.8074  -9.7521  -9.2976  -9.1720  -9.1618  -9.0025  -8.9937
    -8.9862  -8.4972  -8.3790  -6.9838  -2.3027  -2.2928  -2.1681  -2.1511
    -1.8767  -1.8731  -1.2127  -1.0493  -0.8266  -0.7799  -0.7718  -0.2027
    -0.1884  -0.1734  -0.0882   0.0499   0.1335   0.2445   0.3812   0.4140
     0.6074   0.7463   0.7694   0.9443   1.1243   1.1356   1.1556   1.1740
     1.2417   1.2492   1.9049   1.9822   2.0219   2.1137   2.1986   2.5307
     2.6752   2.6841   3.0081   3.2242   3.6663   4.4935   4.5609   4.7644
     4.8664   5.1906   5.2604   5.2889   5.2988   5.3348   5.4780   5.6724
     5.6778

          k = 0.3333-0.5757 0.0354 ( 17361 PWs)   bands (ev):

   -10.0455 -10.0363 -10.0298  -9.4499  -9.4397  -9.4339  -8.8471  -8.7811
    -8.7479  -8.5174  -8.4140  -7.3412  -2.3845  -1.8227  -1.8178  -1.8107
    -1.6093  -1.0458  -0.6968  -0.6914  -0.6857  -0.5674  -0.5614  -0.5537
    -0.4689  -0.3854  -0.2273  -0.1445  -0.1391  -0.1270  -0.1008   0.0282
     0.1325   0.4339   0.5110   0.6947   0.8713   1.0849   1.2622   1.2723
     1.2838   1.9165   1.9304   1.9333   2.1703   2.2583   2.2758   2.2890
     2.5094   2.6912   3.1063   3.3613   3.8076   4.4810   4.5844   4.6928
     4.7314   4.8054   4.8603   4.9122   5.0609   5.3033   5.4949   5.5588
     5.5805

     the Fermi energy is     4.5414 ev

!    total energy              =    -422.11899887 Ry
     Harris-Foulkes estimate   =    -422.11899969 Ry
     estimated scf accuracy    <       0.00000089 Ry

     The total energy is the sum of the following terms:

     one-electron contribution =    -399.78502944 Ry
     hartree contribution      =     250.00325831 Ry
     xc contribution           =    -167.03837715 Ry
     ewald contribution        =    -105.28220203 Ry
     smearing contrib. (-TS)   =      -0.01664856 Ry

     convergence has been achieved in  14 iterations

     Forces acting on atoms (cartesian axes, Ry/au):

     atom    1 type  1   force =    -0.00010537   -0.00063515   -0.00057930
     atom    2 type  1   force =    -0.00098429    0.00091685    0.00058988
     atom    3 type  1   force =     0.00083934    0.00011276    0.00094037
     atom    4 type  1   force =     0.00060238   -0.00024569    0.00062282
     atom    5 type  1   force =     0.01868532   -0.05010343   -0.02424472
     atom    6 type  1   force =    -0.00460000    0.02373482    0.01029231
     atom    7 type  2   force =    -0.00117843   -0.00027308    0.00012834
     atom    8 type  2   force =    -0.00152530    0.00004834   -0.00018176
     atom    9 type  2   force =    -0.00012120   -0.00111906   -0.00115925
     atom   10 type  2   force =     0.00034218    0.00032808   -0.00014807
     atom   11 type  2   force =    -0.00060631   -0.00806063    0.02866185
     atom   12 type  2   force =     0.00776023   -0.00312104   -0.03672092
     atom   13 type  2   force =     0.00073977    0.00042303   -0.00000752
     atom   14 type  2   force =    -0.00036478   -0.00000704   -0.00109708
     atom   15 type  2   force =     0.00178697    0.00000547    0.00015618
     atom   16 type  2   force =     0.00106269    0.00128058   -0.00152373
     atom   17 type  2   force =    -0.03206327    0.01105151    0.00989706
     atom   18 type  2   force =     0.00973006    0.02566368    0.01437354

     Total force =     0.093131     Total SCF correction =     0.001697
 
     init_run     :      1.59s CPU      1.67s WALL (       1 calls)
     electrons    :     26.59s CPU     27.06s WALL (       1 calls)
     forces       :      0.85s CPU      0.86s WALL (       1 calls)

     Called by init_run:
     wfcinit      :      0.62s CPU      0.65s WALL (       1 calls)
     potinit      :      0.28s CPU      0.28s WALL (       1 calls)
     hinit0       :      0.36s CPU      0.38s WALL (       1 calls)

     Called by electrons:
     c_bands      :     17.99s CPU     18.27s WALL (      14 calls)
     sum_band     :      5.62s CPU      5.73s WALL (      14 calls)
     v_of_rho     :      0.52s CPU      0.54s WALL (      15 calls)
     newd         :      1.96s CPU      2.02s WALL (      15 calls)
     mix_rho      :      0.59s CPU      0.60s WALL (      14 calls)

     Called by c_bands:
     init_us_2    :      0.40s CPU      0.41s WALL (     150 calls)
     cegterg      :     16.57s CPU     16.84s WALL (      70 calls)

     Called by sum_band:
     sum_band:bec :      0.03s CPU      0.03s WALL (      70 calls)
     addusdens    :      3.16s CPU      3.20s WALL (      14 calls)

     Called by *egterg:
     h_psi        :      9.01s CPU      9.23s WALL (     314 calls)
     s_psi        :      1.06s CPU      1.07s WALL (     314 calls)
     g_psi        :      0.03s CPU      0.03s WALL (     239 calls)
     cdiaghg      :      4.53s CPU      4.58s WALL (     309 calls)

     Called by h_psi:
     h_psi:pot    :      8.96s CPU      9.18s WALL (     314 calls)
     h_psi:calbec :      1.32s CPU      1.38s WALL (     314 calls)
     vloc_psi     :      6.59s CPU      6.76s WALL (     314 calls)
     add_vuspsi   :      1.04s CPU      1.05s WALL (     314 calls)

     General routines
     calbec       :      1.87s CPU      1.95s WALL (     404 calls)
     fft          :      0.51s CPU      0.55s WALL (     204 calls)
     ffts         :      0.30s CPU      0.31s WALL (     440 calls)
     fftw         :      7.38s CPU      7.55s WALL (   26512 calls)
     interpolate  :      0.05s CPU      0.05s WALL (      15 calls)
 
     Parallel routines
     fft_scatt_xy :      0.91s CPU      0.94s WALL (   27156 calls)
     fft_scatt_yz :      3.55s CPU      3.65s WALL (   27156 calls)
 
     PWSCF        :     29.71s CPU     30.36s WALL

 
   This run was terminated on:  10:42:19  17Nov2021            

=------------------------------------------------------------------------------=
   JOB DONE.
=------------------------------------------------------------------------------=
