
     Program PWSCF v.6.4 starts on 14Oct2021 at 10: 2:57 

     This program is part of the open-source Quantum ESPRESSO suite
     for quantum simulation of materials; please cite
         "P. Giannozzi et al., J. Phys.:Condens. Matter 21 395502 (2009);
         "P. Giannozzi et al., J. Phys.:Condens. Matter 29 465901 (2017);
          URL http://www.quantum-espresso.org", 
     in publications or presentations arising from this work. More details at
     http://www.quantum-espresso.org/quote

     Parallel version (MPI), running on    40 processors

     MPI processes distributed on     1 nodes
     R & G space division:  proc/nbgrp/npool/nimage =      40
     Waiting for input...
     Reading input from standard input
Warning: card    &IONS ignored
Warning: card      ION_DYNAMICS = 'BFGS' ignored
Warning: card   / ignored
Warning: card    &CELL ignored
Warning: card      CELL_DYNAMICS = 'BFGS', ignored
Warning: card    / ignored

     Current dimensions of program PWSCF are:
     Max number of different atomic species (ntypx) = 10
     Max number of k-points (npk) =  40000
     Max angular momentum in pseudopotentials (lmaxx) =  3

     Subspace diagonalization in iterative solution of the eigenvalue problem:
     one sub-group per band group will be used
     scalapack distributed-memory algorithm (size of sub-group:  4*  4 procs)

 
     Parallelization info
     --------------------
     sticks:   dense  smooth     PW     G-vecs:    dense   smooth      PW
     Min          90      45     12                24939     8819    1272
     Max          91      46     13                24954     8825    1293
     Sum        3607    1801    499               997791   352861   51229
 


     bravais-lattice index     =            0
     lattice parameter (alat)  =      12.0406  a.u.
     unit-cell volume          =    8649.1156 (a.u.)^3
     number of atoms/cell      =           36
     number of atomic types    =            2
     number of electrons       =       216.00
     number of Kohn-Sham states=          130
     kinetic-energy cutoff     =      45.0000  Ry
     charge density cutoff     =     360.0000  Ry
     convergence threshold     =      1.0E-06
     mixing beta               =       0.7000
     number of iterations used =            8  local-TF  mixing
     Exchange-correlation      = SLA PW GGX GGC ( 1  4  2  2 0 0)

     celldm(1)=  12.040642  celldm(2)=   0.000000  celldm(3)=   0.000000
     celldm(4)=   0.000000  celldm(5)=   0.000000  celldm(6)=   0.000000

     crystal axes: (cart. coord. in units of alat)
               a(1) = (   1.000000   0.000000   0.000000 )  
               a(2) = (   0.456143   0.866618   0.000000 )  
               a(3) = (   0.145954   0.553890   5.717355 )  

     reciprocal axes: (cart. coord. in units 2 pi/alat)
               b(1) = (  1.000000 -0.526349  0.025464 )  
               b(2) = (  0.000000  1.153911 -0.111789 )  
               b(3) = (  0.000000  0.000000  0.174906 )  


     PseudoPot. # 1 for Mo read from file:
     ~/pseudo/Mo.pw91-n-van.UPF
     MD5 check sum: Not computed, couldn't open file
     Pseudo is Ultrasoft + core correction, Zval =  6.0
     Generated by new atomic code, or converted to UPF format
     Using radial grid of  965 points,  3 beta functions with: 
                l(1) =   1
                l(2) =   2
                l(3) =   2
     Q(r) pseudized with  8 coefficients,  rinner =    1.000   1.000   1.000
                                                       1.200   1.200

     PseudoPot. # 2 for S  read from file:
     ~/pseudo/S.pw91-van_ak.UPF
     MD5 check sum: Not computed, couldn't open file
     Pseudo is Ultrasoft, Zval =  6.0
     Generated by new atomic code, or converted to UPF format
     Using radial grid of  811 points,  6 beta functions with: 
                l(1) =   0
                l(2) =   0
                l(3) =   1
                l(4) =   1
                l(5) =   2
                l(6) =   2
     Q(r) pseudized with  8 coefficients,  rinner =    1.100   1.100   1.100
                                                       1.100   1.100

     atomic species   valence    mass     pseudopotential
        Mo             6.00    95.50000     Mo( 1.00)
        S              6.00    32.06500     S ( 1.00)

     No symmetry found



   Cartesian axes

     site n.     atom                  positions (alat units)
         1           Mo  tau(   1) = (   0.4166405   0.5765124   0.1558875  )
         2           Mo  tau(   2) = (   0.8254276   1.3026983   5.5158896  )
         3           Mo  tau(   3) = (   0.4780156   0.1267550   0.0988676  )
         4           Mo  tau(   4) = (   1.3066869   0.8856377   5.5749107  )
         5           Mo  tau(   5) = (   0.5366552   0.2861564   1.3363298  )
         6           Mo  tau(   6) = (   1.0367399   0.2858033   1.3372137  )
         7           Mo  tau(   7) = (   1.2650027   0.7193011   1.3368829  )
         8           Mo  tau(   8) = (   0.7645437   0.7193542   1.3368863  )
         9           Mo  tau(   9) = (   0.6903318   0.7275968   4.3977243  )
        10           Mo  tau(  10) = (   1.1905299   0.7275350   4.3982777  )
        11           Mo  tau(  11) = (   1.4184239   1.1608367   4.3972028  )
        12           Mo  tau(  12) = (   0.9185391   1.1609113   4.3978793  )
        13           S   tau(  13) = (   0.7481196   0.5401599   5.5535609  )
        14           S   tau(  14) = (   0.2954922   0.6326640   5.2873854  )
        15           S   tau(  15) = (   0.6265688   0.9690179   5.5833656  )
        16           S   tau(  16) = (   1.0586403   1.0104084   5.4068011  )
        17           S   tau(  17) = (   0.7904677   0.1412391   1.0873691  )
        18           S   tau(  18) = (   0.2899168   0.1411565   1.0872100  )
        19           S   tau(  19) = (   0.5183539   0.5749064   1.0863544  )
        20           S   tau(  20) = (   1.0181874   0.5743567   1.0883133  )
        21           S   tau(  21) = (   0.9439311   0.5831082   4.1479931  )
        22           S   tau(  22) = (   0.4436066   0.5828003   4.1480896  )
        23           S   tau(  23) = (   0.6720322   1.0161347   4.1477916  )
        24           S   tau(  24) = (   1.1716114   1.0157753   4.1480146  )
        25           S   tau(  25) = (   1.1802250   0.8668101   0.2668171  )
        26           S   tau(  26) = (   0.1591643   0.0421219   0.0905629  )
        27           S   tau(  27) = (   0.4933763   0.3794952   0.3843031  )
        28           S   tau(  28) = (   1.0353762   0.4701704   0.1199099  )
        29           S   tau(  29) = (   1.2459949   1.0076716   1.5866530  )
        30           S   tau(  30) = (   0.7466645   1.0077243   1.5867819  )
        31           S   tau(  31) = (   0.5182563   0.5741487   1.5867381  )
        32           S   tau(  32) = (   1.0182749   0.5744446   1.5867714  )
        33           S   tau(  33) = (   0.9438497   0.5822035   4.6470217  )
        34           S   tau(  34) = (   0.4444251   0.5825018   4.6482687  )
        35           S   tau(  35) = (   0.6717745   1.0161999   4.6468254  )
        36           S   tau(  36) = (   1.1724718   1.0162032   4.6475742  )

     number of k points=     5  Marzari-Vanderbilt smearing, width (Ry)=  0.0200
                       cart. coord. in units 2pi/alat
        k(    1) = (   0.0000000   0.0000000   0.0000000), wk =   0.2222222
        k(    2) = (   0.0000000   0.3846371  -0.0372631), wk =   0.4444444
        k(    3) = (   0.3333333  -0.1754496   0.0084879), wk =   0.4444444
        k(    4) = (   0.3333333   0.2091874  -0.0287752), wk =   0.4444444
        k(    5) = (   0.3333333  -0.5600867   0.0457510), wk =   0.4444444

     Dense  grid:   997791 G-vectors     FFT dimensions: (  75,  72, 432)

     Smooth grid:   352861 G-vectors     FFT dimensions: (  54,  54, 300)

     Estimated max dynamical RAM per process >     155.41 MB

     Estimated total dynamical RAM >       6.07 GB

     Initial potential from superposition of free atoms

     starting charge  215.98107, renormalised to  216.00000

     negative rho (up, down):  9.749E-04 0.000E+00
     Starting wfcs are  204 randomized atomic wfcs

     total cpu time spent up to now is        6.4 secs

     Self-consistent Calculation

     iteration #  1     ecut=    45.00 Ry     beta= 0.70
     Davidson diagonalization with overlap
     ethr =  1.00E-02,  avg # of iterations =  2.6

     negative rho (up, down):  1.004E-04 0.000E+00

     total cpu time spent up to now is       15.7 secs

     total energy              =    -843.23779736 Ry
     Harris-Foulkes estimate   =    -845.47939005 Ry
     estimated scf accuracy    <       5.74636835 Ry

     iteration #  2     ecut=    45.00 Ry     beta= 0.70
     Davidson diagonalization with overlap
     ethr =  2.66E-03,  avg # of iterations =  3.0

     negative rho (up, down):  1.333E-05 0.000E+00

     total cpu time spent up to now is       23.9 secs

     total energy              =    -844.25911064 Ry
     Harris-Foulkes estimate   =    -844.42544076 Ry
     estimated scf accuracy    <       0.84417190 Ry

     iteration #  3     ecut=    45.00 Ry     beta= 0.70
     Davidson diagonalization with overlap
     ethr =  3.91E-04,  avg # of iterations =  2.2

     negative rho (up, down):  3.839E-07 0.000E+00

     total cpu time spent up to now is       30.9 secs

     total energy              =    -844.29747277 Ry
     Harris-Foulkes estimate   =    -844.34994109 Ry
     estimated scf accuracy    <       0.21175894 Ry

     iteration #  4     ecut=    45.00 Ry     beta= 0.70
     Davidson diagonalization with overlap
     ethr =  9.80E-05,  avg # of iterations =  5.4

     negative rho (up, down):  1.878E-08 0.000E+00

     total cpu time spent up to now is       39.8 secs

     total energy              =    -844.32347340 Ry
     Harris-Foulkes estimate   =    -844.33750166 Ry
     estimated scf accuracy    <       0.04190426 Ry

     iteration #  5     ecut=    45.00 Ry     beta= 0.70
     Davidson diagonalization with overlap
     c_bands:  1 eigenvalues not converged
     ethr =  1.94E-05,  avg # of iterations =  8.8

     total cpu time spent up to now is       50.6 secs

     total energy              =    -844.32833674 Ry
     Harris-Foulkes estimate   =    -844.33076825 Ry
     estimated scf accuracy    <       0.00760211 Ry

     iteration #  6     ecut=    45.00 Ry     beta= 0.70
     Davidson diagonalization with overlap
     ethr =  3.52E-06,  avg # of iterations =  6.0

     total cpu time spent up to now is       60.0 secs

     total energy              =    -844.32741460 Ry
     Harris-Foulkes estimate   =    -844.32994004 Ry
     estimated scf accuracy    <       0.00630755 Ry

     iteration #  7     ecut=    45.00 Ry     beta= 0.70
     Davidson diagonalization with overlap
     ethr =  2.92E-06,  avg # of iterations =  2.4

     total cpu time spent up to now is       66.9 secs

     total energy              =    -844.32825945 Ry
     Harris-Foulkes estimate   =    -844.32811400 Ry
     estimated scf accuracy    <       0.00142311 Ry

     iteration #  8     ecut=    45.00 Ry     beta= 0.70
     Davidson diagonalization with overlap
     ethr =  6.59E-07,  avg # of iterations =  1.4

     negative rho (up, down):  1.129E-07 0.000E+00

     total cpu time spent up to now is       73.3 secs

     total energy              =    -844.32889403 Ry
     Harris-Foulkes estimate   =    -844.32832855 Ry
     estimated scf accuracy    <       0.00101767 Ry

     iteration #  9     ecut=    45.00 Ry     beta= 0.70
     Davidson diagonalization with overlap
     ethr =  4.71E-07,  avg # of iterations =  2.6

     negative rho (up, down):  7.234E-05 0.000E+00

     total cpu time spent up to now is       80.4 secs

     total energy              =    -844.32921679 Ry
     Harris-Foulkes estimate   =    -844.32895151 Ry
     estimated scf accuracy    <       0.00074525 Ry

     iteration # 10     ecut=    45.00 Ry     beta= 0.70
     Davidson diagonalization with overlap
     ethr =  3.45E-07,  avg # of iterations =  1.0

     negative rho (up, down):  1.082E-03 0.000E+00

     total cpu time spent up to now is       88.0 secs

     total energy              =    -844.32938062 Ry
     Harris-Foulkes estimate   =    -844.32924250 Ry
     estimated scf accuracy    <       0.00038519 Ry

     iteration # 11     ecut=    45.00 Ry     beta= 0.70
     Davidson diagonalization with overlap
     ethr =  1.78E-07,  avg # of iterations =  3.0

     negative rho (up, down):  1.640E-03 0.000E+00

     total cpu time spent up to now is       96.5 secs

     total energy              =    -844.32939683 Ry
     Harris-Foulkes estimate   =    -844.32941975 Ry
     estimated scf accuracy    <       0.00018488 Ry

     iteration # 12     ecut=    45.00 Ry     beta= 0.70
     Davidson diagonalization with overlap
     ethr =  8.56E-08,  avg # of iterations =  3.4

     negative rho (up, down):  1.935E-03 0.000E+00

     total cpu time spent up to now is      104.5 secs

     total energy              =    -844.32941883 Ry
     Harris-Foulkes estimate   =    -844.32941581 Ry
     estimated scf accuracy    <       0.00007108 Ry

     iteration # 13     ecut=    45.00 Ry     beta= 0.70
     Davidson diagonalization with overlap
     ethr =  3.29E-08,  avg # of iterations =  1.8

     negative rho (up, down):  1.781E-03 0.000E+00

     total cpu time spent up to now is      111.6 secs

     total energy              =    -844.32941613 Ry
     Harris-Foulkes estimate   =    -844.32942093 Ry
     estimated scf accuracy    <       0.00005718 Ry

     iteration # 14     ecut=    45.00 Ry     beta= 0.70
     Davidson diagonalization with overlap
     ethr =  2.65E-08,  avg # of iterations =  1.0

     negative rho (up, down):  1.963E-03 0.000E+00

     total cpu time spent up to now is      118.4 secs

     total energy              =    -844.32941448 Ry
     Harris-Foulkes estimate   =    -844.32941740 Ry
     estimated scf accuracy    <       0.00004903 Ry

     iteration # 15     ecut=    45.00 Ry     beta= 0.70
     Davidson diagonalization with overlap
     ethr =  2.27E-08,  avg # of iterations =  1.0

     negative rho (up, down):  2.110E-03 0.000E+00

     total cpu time spent up to now is      125.5 secs

     total energy              =    -844.32940609 Ry
     Harris-Foulkes estimate   =    -844.32941516 Ry
     estimated scf accuracy    <       0.00004066 Ry

     iteration # 16     ecut=    45.00 Ry     beta= 0.70
     Davidson diagonalization with overlap
     ethr =  1.88E-08,  avg # of iterations =  1.2

     negative rho (up, down):  1.647E-03 0.000E+00

     total cpu time spent up to now is      132.7 secs

     total energy              =    -844.32939246 Ry
     Harris-Foulkes estimate   =    -844.32940702 Ry
     estimated scf accuracy    <       0.00002677 Ry

     iteration # 17     ecut=    45.00 Ry     beta= 0.70
     Davidson diagonalization with overlap
     ethr =  1.24E-08,  avg # of iterations =  3.4

     negative rho (up, down):  1.410E-03 0.000E+00

     total cpu time spent up to now is      140.9 secs

     total energy              =    -844.32938899 Ry
     Harris-Foulkes estimate   =    -844.32939479 Ry
     estimated scf accuracy    <       0.00000984 Ry

     iteration # 18     ecut=    45.00 Ry     beta= 0.70
     Davidson diagonalization with overlap
     ethr =  4.56E-09,  avg # of iterations =  2.8

     negative rho (up, down):  1.290E-03 0.000E+00

     total cpu time spent up to now is      148.7 secs

     total energy              =    -844.32938667 Ry
     Harris-Foulkes estimate   =    -844.32938965 Ry
     estimated scf accuracy    <       0.00000373 Ry

     iteration # 19     ecut=    45.00 Ry     beta= 0.70
     Davidson diagonalization with overlap
     ethr =  1.73E-09,  avg # of iterations =  3.2

     negative rho (up, down):  1.171E-03 0.000E+00

     total cpu time spent up to now is      156.6 secs

     total energy              =    -844.32938426 Ry
     Harris-Foulkes estimate   =    -844.32938700 Ry
     estimated scf accuracy    <       0.00000159 Ry

     iteration # 20     ecut=    45.00 Ry     beta= 0.70
     Davidson diagonalization with overlap
     ethr =  7.37E-10,  avg # of iterations =  2.8

     negative rho (up, down):  1.362E-03 0.000E+00

     total cpu time spent up to now is      163.4 secs

     End of self-consistent calculation

          k = 0.0000 0.0000 0.0000 ( 44117 PWs)   bands (ev):

   -13.4732 -12.9211 -12.9179 -12.7487 -11.7768 -11.7512 -11.7477 -11.5628
   -11.1874 -11.1842 -11.1588 -11.0915 -11.0865 -11.0837 -10.9978 -10.9947
   -10.9942 -10.9920 -10.8714 -10.8681 -10.7419 -10.7385 -10.6541 -10.4222
    -5.3096  -4.9964  -4.6124  -4.6039  -4.6008  -4.5852  -4.5695  -4.5663
    -4.5049  -4.5016  -4.3938  -4.3891  -3.9813  -3.6908  -3.6870  -3.6390
    -3.6352  -3.6038  -3.5794  -3.5757  -3.4779  -3.4246  -3.1351  -3.0845
    -2.8995  -2.8957  -2.8750  -2.8719  -2.8625  -2.8585  -2.7306  -2.6359
    -2.4299  -2.4262  -2.2405  -2.2378  -1.9127  -1.9095  -1.8765  -1.7636
    -1.6398  -1.6116  -1.6093  -1.6092  -1.6057  -1.3490  -1.2240  -1.0932
    -1.0906  -0.8999  -0.8919  -0.7934  -0.7715  -0.7430  -0.7070  -0.6673
    -0.6582  -0.6537  -0.6502  -0.4201  -0.4178  -0.3959  -0.0390  -0.0359
     0.0076   0.0107   0.2170   0.2389   0.2916   0.2942   0.3130   0.3159
     0.4808   0.4841   0.5666   0.5698   0.6362   0.6403   0.9548   1.0011
     1.0050   1.4722   1.7881   2.0045   2.1726   2.5028   3.0259   3.1641
     3.1670   3.2377   3.2406   3.2629   3.2911   3.2940   3.3784   3.4051
     3.7368   3.7477   3.7527   3.8034   3.8063   3.8398   3.8439   3.8569
     3.8773   3.8803

          k = 0.0000 0.3846-0.0373 ( 44071 PWs)   bands (ev):

   -13.2033 -12.8175 -12.5411 -12.5379 -11.9674 -11.6461 -11.6428 -11.5632
   -11.5594 -11.4833 -11.4129 -11.1640 -11.1607 -11.1283 -11.1251 -11.0691
   -11.0659 -11.0250 -10.9233 -10.9200 -10.7945 -10.7912 -10.7148 -10.4185
    -5.4564  -4.9257  -4.5638  -4.3209  -4.1261  -4.1228  -4.0503  -4.0470
    -4.0121  -3.9863  -3.9829  -3.9740  -3.9695  -3.7096  -3.7063  -3.6776
    -3.6307  -3.6274  -3.4869  -3.2865  -3.1149  -2.9875  -2.9835  -2.9026
    -2.7370  -2.7223  -2.7137  -2.6838  -2.6801  -2.5999  -2.5954  -2.5552
    -2.4064  -2.2383  -2.1534  -2.1503  -2.1334  -2.1309  -2.0666  -1.9540
    -1.9240  -1.9214  -1.6944  -1.6912  -1.6508  -1.5908  -1.5881  -1.3590
    -1.2971  -1.2936  -1.2764  -1.0322  -1.0286  -0.9701  -0.9159  -0.9134
    -0.7890  -0.7860  -0.6438  -0.6399  -0.5910  -0.5869  -0.5166  -0.5121
    -0.4825  -0.3451  -0.1548  -0.1519   0.0608   0.0646   0.1925   0.2136
     0.2165   0.5629   0.6396   0.6423   0.7402   0.7433   0.7543   0.7579
     0.9171   1.3381   1.7861   2.0740   2.2635   2.5731   2.7268   3.0485
     3.1776   3.1815   3.2375   3.2475   3.2636   3.2801   3.2823   3.2901
     3.2947   3.3253   3.4335   3.4393   3.5331   3.6776   3.6817   3.7025
     3.7052   3.8099

          k = 0.3333-0.1754 0.0085 ( 44152 PWs)   bands (ev):

   -13.2310 -12.7331 -12.5607 -12.5575 -11.9939 -11.7137 -11.7104 -11.5864
   -11.5826 -11.4861 -11.3309 -11.2129 -11.2095 -11.1083 -11.0807 -11.0780
   -11.0356 -11.0324 -10.8274 -10.8240 -10.7808 -10.7620 -10.7586 -10.4224
    -5.1068  -4.9048  -4.5449  -4.4747  -4.1936  -4.1646  -4.1614  -4.1213
    -4.1181  -4.0041  -4.0007  -3.9892  -3.9834  -3.9034  -3.7578  -3.7548
    -3.7179  -3.7148  -3.4373  -3.2995  -3.1611  -3.0265  -3.0059  -3.0028
    -2.8253  -2.8214  -2.7225  -2.6409  -2.6366  -2.5979  -2.5938  -2.4603
    -2.3831  -2.2634  -2.2604  -2.1966  -2.1805  -2.1748  -2.1426  -2.0603
    -2.0568  -1.9455  -1.8326  -1.7819  -1.7758  -1.5573  -1.3088  -1.3057
    -1.2052  -1.2021  -1.0548  -1.0515  -1.0214  -0.7298  -0.7272  -0.6284
    -0.5961  -0.5912  -0.5770  -0.5732  -0.5681  -0.5651  -0.5481  -0.5430
    -0.4669  -0.1259  -0.0124  -0.0099  -0.0080  -0.0048   0.1646   0.1677
     0.3573   0.5680   0.5703   0.6317   0.6359   0.6725   0.6848   0.6892
     0.8285   1.4567   1.6481   1.8872   2.1581   2.6800   2.7456   2.9815
     3.1623   3.1847   3.1920   3.2521   3.2550   3.2795   3.2824   3.2903
     3.2948   3.4210   3.4242   3.5447   3.6767   3.6857   3.7787   3.8681
     3.8811   3.8846

          k = 0.3333 0.2092-0.0288 ( 44060 PWs)   bands (ev):

   -13.2087 -12.7780 -12.5213 -12.5181 -11.9772 -11.5822 -11.5784 -11.5703
   -11.5388 -11.5361 -11.1964 -11.1929 -11.1871 -11.1461 -11.1432 -11.0894
   -11.0442 -11.0409 -10.9526 -10.9493 -10.8890 -10.8857 -10.7131 -10.5535
    -5.2975  -4.8918  -4.5444  -4.3611  -4.2498  -4.0544  -4.0511  -4.0218
    -4.0186  -3.9734  -3.9699  -3.9590  -3.9545  -3.8333  -3.6205  -3.6172
    -3.5816  -3.5782  -3.4187  -3.2223  -3.0431  -2.9984  -2.9546  -2.9515
    -2.8344  -2.6904  -2.6862  -2.6502  -2.6457  -2.6306  -2.6081  -2.6046
    -2.4084  -2.2689  -2.0733  -1.9951  -1.9914  -1.9711  -1.9687  -1.8909
    -1.8888  -1.8881  -1.8850  -1.7488  -1.7138  -1.6162  -1.5942  -1.5805
    -1.2462  -1.2383  -1.2353  -1.1421  -1.1399  -1.1245  -1.1207  -1.0120
    -1.0092  -0.9418  -0.6946  -0.6918  -0.6688  -0.6654  -0.4542  -0.4486
    -0.4049  -0.3271  -0.3244  -0.3240   0.1362   0.1393   0.2628   0.2706
     0.2765   0.5981   0.7553   0.7579   0.7929   0.7963   0.8095   0.8133
     0.9611   1.7212   1.8579   2.0159   2.2844   2.4696   2.8559   3.1452
     3.1480   3.1886   3.1918   3.1976   3.2012   3.3027   3.3944   3.4039
     3.4077   3.4103   3.4534   3.5142   3.5211   3.5610   3.6505   3.6559
     3.6566   3.6594

          k = 0.3333-0.5601 0.0458 ( 44119 PWs)   bands (ev):

   -13.0082 -12.8252 -12.1043 -11.9443 -11.9412 -11.8962 -11.8928 -11.8471
   -11.8440 -11.5494 -11.3677 -11.2952 -11.2920 -11.2446 -11.2412 -11.1910
   -11.1877 -11.0835 -10.8357 -10.8326 -10.7365 -10.6956 -10.6924 -10.4828
    -5.2161  -5.0329  -4.3684  -4.3392  -4.1615  -4.1585  -4.1482  -3.8898
    -3.6873  -3.6835  -3.6734  -3.6702  -3.6614  -3.6569  -3.4996  -3.3838
    -3.3804  -3.2364  -3.1897  -2.8592  -2.8559  -2.8456  -2.7593  -2.6343
    -2.6290  -2.6244  -2.6211  -2.6168  -2.6114  -2.5249  -2.4911  -2.4875
    -2.4632  -2.4554  -2.4367  -2.3814  -2.3780  -2.3639  -2.3604  -2.2518
    -2.1465  -2.0179  -2.0146  -1.9476  -1.9445  -1.9315  -1.9264  -1.8175
    -1.7665  -1.7635  -1.6904  -1.5337  -1.1965  -1.0618  -1.0582  -0.8237
    -0.7960  -0.7933  -0.7212  -0.7181  -0.6725  -0.6695  -0.4177   0.0278
     0.0327   0.0448   0.0675   0.0739   0.0935   0.0973   0.1816   0.2818
     0.2852   0.3335   0.3366   0.4273   0.4305   0.5619   0.9687   1.1352
     1.1382   1.2039   1.9724   2.0986   2.2950   2.4994   2.8081   2.8517
     2.8548   2.9214   2.9271   2.9494   2.9594   2.9919   2.9969   3.0285
     3.2335   3.3727   3.3975   3.4005   3.5282   3.5388   3.5541   3.5877
     3.6316   3.6337

     the Fermi energy is     2.1490 ev

!    total energy              =    -844.32938752 Ry
     Harris-Foulkes estimate   =    -844.32938441 Ry
     estimated scf accuracy    <       0.00000071 Ry

     The total energy is the sum of the following terms:

     one-electron contribution =   -6257.96391653 Ry
     hartree contribution      =    3211.45066273 Ry
     xc contribution           =    -335.81651580 Ry
     ewald contribution        =    2538.00288738 Ry
     smearing contrib. (-TS)   =      -0.00250530 Ry

     convergence has been achieved in  20 iterations

     negative rho (up, down):  1.362E-03 0.000E+00

     Forces acting on atoms (cartesian axes, Ry/au):

     atom    1 type  1   force =    -0.18824619    0.26734290   -0.10207036
     atom    2 type  1   force =     0.18357112   -0.27285414    0.12081207
     atom    3 type  1   force =    -0.00866897    0.18488404    0.03833922
     atom    4 type  1   force =     0.00856395   -0.18333286   -0.04758636
     atom    5 type  1   force =    -0.00507764   -0.00053039    0.00212019
     atom    6 type  1   force =    -0.00531918   -0.00025391    0.00090775
     atom    7 type  1   force =    -0.00561754   -0.00061287    0.00129041
     atom    8 type  1   force =    -0.00480020   -0.00067638    0.00135860
     atom    9 type  1   force =    -0.00513469   -0.00075272   -0.00114364
     atom   10 type  1   force =    -0.00499270   -0.00049072   -0.00215131
     atom   11 type  1   force =    -0.00557265   -0.00010488   -0.00084975
     atom   12 type  1   force =    -0.00471380   -0.00001691   -0.00122823
     atom   13 type  2   force =     0.08626865   -0.13315958   -0.24162209
     atom   14 type  2   force =    -0.08900089    0.17004935   -0.30639960
     atom   15 type  2   force =     0.23100618    0.04995187   -0.19979456
     atom   16 type  2   force =    -0.20054377    0.10272295   -0.18216247
     atom   17 type  2   force =     0.00231345   -0.00007670    0.00009518
     atom   18 type  2   force =     0.00294271    0.00031679    0.00050985
     atom   19 type  2   force =     0.00250292   -0.00054898    0.00273677
     atom   20 type  2   force =     0.00279381    0.00034302   -0.00190827
     atom   21 type  2   force =     0.00284938    0.00000296    0.00169192
     atom   22 type  2   force =     0.00306874    0.00014320    0.00229714
     atom   23 type  2   force =     0.00285190   -0.00004656    0.00169546
     atom   24 type  2   force =     0.00315732    0.00028277    0.00182062
     atom   25 type  2   force =     0.20773336   -0.10881850    0.18494871
     atom   26 type  2   force =    -0.23435751   -0.05230083    0.19214658
     atom   27 type  2   force =     0.08829465   -0.16012825    0.30061216
     atom   28 type  2   force =    -0.08535757    0.13442466    0.24487383
     atom   29 type  2   force =     0.00280381    0.00062986   -0.00161205
     atom   30 type  2   force =     0.00254193    0.00033316   -0.00189865
     atom   31 type  2   force =     0.00274043    0.00057649   -0.00211398
     atom   32 type  2   force =     0.00259007    0.00048132   -0.00153607
     atom   33 type  2   force =     0.00231624    0.00120289    0.00011947
     atom   34 type  2   force =     0.00199970    0.00081956   -0.00331570
     atom   35 type  2   force =     0.00287795    0.00010290    0.00042178
     atom   36 type  2   force =     0.00161504    0.00009447   -0.00140462

     Total force =     1.048358     Total SCF correction =     0.002285
 
     init_run     :      5.18s CPU      5.44s WALL (       1 calls)
     electrons    :    151.12s CPU    157.00s WALL (       1 calls)
     forces       :      2.69s CPU      2.80s WALL (       1 calls)

     Called by init_run:
     wfcinit      :      2.89s CPU      3.01s WALL (       1 calls)
     potinit      :      0.64s CPU      0.65s WALL (       1 calls)
     hinit0       :      0.84s CPU      0.90s WALL (       1 calls)

     Called by electrons:
     c_bands      :    104.57s CPU    106.83s WALL (      20 calls)
     sum_band     :     23.54s CPU     25.15s WALL (      20 calls)
     v_of_rho     :      1.76s CPU      1.85s WALL (      21 calls)
     newd         :      6.84s CPU      7.71s WALL (      21 calls)
     mix_rho      :     14.55s CPU     15.62s WALL (      20 calls)

     Called by c_bands:
     init_us_2    :      1.77s CPU      1.79s WALL (     210 calls)
     cegterg      :     96.84s CPU     99.03s WALL (     100 calls)

     Called by sum_band:
     sum_band:bec :      0.12s CPU      0.12s WALL (     100 calls)
     addusdens    :      8.28s CPU      9.64s WALL (      20 calls)

     Called by *egterg:
     h_psi        :     57.19s CPU     58.55s WALL (     400 calls)
     s_psi        :     10.37s CPU     10.40s WALL (     400 calls)
     g_psi        :      0.16s CPU      0.17s WALL (     295 calls)
     cdiaghg      :     14.38s CPU     14.66s WALL (     395 calls)

     Called by h_psi:
     h_psi:pot    :     56.83s CPU     57.89s WALL (     400 calls)
     h_psi:calbec :     10.67s CPU     10.99s WALL (     400 calls)
     vloc_psi     :     35.60s CPU     36.18s WALL (     400 calls)
     add_vuspsi   :     10.55s CPU     10.72s WALL (     400 calls)

     General routines
     calbec       :     16.01s CPU     16.45s WALL (     520 calls)
     fft          :      1.65s CPU      1.80s WALL (     282 calls)
     ffts         :      7.71s CPU      8.67s WALL (    5836 calls)
     fftw         :     38.85s CPU     39.47s WALL (   72210 calls)
     interpolate  :      0.16s CPU      0.18s WALL (      21 calls)
 
     Parallel routines
     fft_scatt_xy :      5.14s CPU      5.21s WALL (   78328 calls)
     fft_scatt_yz :     19.72s CPU     20.92s WALL (   78328 calls)
 
     PWSCF        :   2m39.80s CPU   2m46.29s WALL

 
   This run was terminated on:  10: 5:43  14Oct2021            

=------------------------------------------------------------------------------=
   JOB DONE.
=------------------------------------------------------------------------------=

     Program PWSCF v.6.4 starts on 14Oct2021 at 10:46: 8 

     This program is part of the open-source Quantum ESPRESSO suite
     for quantum simulation of materials; please cite
         "P. Giannozzi et al., J. Phys.:Condens. Matter 21 395502 (2009);
         "P. Giannozzi et al., J. Phys.:Condens. Matter 29 465901 (2017);
          URL http://www.quantum-espresso.org", 
     in publications or presentations arising from this work. More details at
     http://www.quantum-espresso.org/quote

     Parallel version (MPI), running on    40 processors

     MPI processes distributed on     1 nodes
     R & G space division:  proc/nbgrp/npool/nimage =      40
     Waiting for input...
     Reading input from standard input
Warning: card    &IONS ignored
Warning: card      ION_DYNAMICS = 'BFGS' ignored
Warning: card   / ignored
Warning: card    &CELL ignored
Warning: card      CELL_DYNAMICS = 'BFGS', ignored
Warning: card    / ignored

     Current dimensions of program PWSCF are:
     Max number of different atomic species (ntypx) = 10
     Max number of k-points (npk) =  40000
     Max angular momentum in pseudopotentials (lmaxx) =  3

     Subspace diagonalization in iterative solution of the eigenvalue problem:
     one sub-group per band group will be used
     scalapack distributed-memory algorithm (size of sub-group:  4*  4 procs)

 
     Parallelization info
     --------------------
     sticks:   dense  smooth     PW     G-vecs:    dense   smooth      PW
     Min          90      45     12                24939     8819    1272
     Max          91      46     13                24954     8825    1293
     Sum        3607    1801    499               997791   352861   51229
 


     bravais-lattice index     =            0
     lattice parameter (alat)  =      12.0406  a.u.
     unit-cell volume          =    8649.1156 (a.u.)^3
     number of atoms/cell      =           36
     number of atomic types    =            2
     number of electrons       =       216.00
     number of Kohn-Sham states=          130
     kinetic-energy cutoff     =      45.0000  Ry
     charge density cutoff     =     360.0000  Ry
     convergence threshold     =      1.0E-06
     mixing beta               =       0.7000
     number of iterations used =            8  local-TF  mixing
     Exchange-correlation      = SLA PW GGX GGC ( 1  4  2  2 0 0)

     celldm(1)=  12.040642  celldm(2)=   0.000000  celldm(3)=   0.000000
     celldm(4)=   0.000000  celldm(5)=   0.000000  celldm(6)=   0.000000

     crystal axes: (cart. coord. in units of alat)
               a(1) = (   1.000000   0.000000   0.000000 )  
               a(2) = (   0.456143   0.866618   0.000000 )  
               a(3) = (   0.145954   0.553890   5.717355 )  

     reciprocal axes: (cart. coord. in units 2 pi/alat)
               b(1) = (  1.000000 -0.526349  0.025464 )  
               b(2) = (  0.000000  1.153911 -0.111789 )  
               b(3) = (  0.000000  0.000000  0.174906 )  


     PseudoPot. # 1 for Mo read from file:
     ~/pseudo/Mo.pw91-n-van.UPF
     MD5 check sum: Not computed, couldn't open file
     Pseudo is Ultrasoft + core correction, Zval =  6.0
     Generated by new atomic code, or converted to UPF format
     Using radial grid of  965 points,  3 beta functions with: 
                l(1) =   1
                l(2) =   2
                l(3) =   2
     Q(r) pseudized with  8 coefficients,  rinner =    1.000   1.000   1.000
                                                       1.200   1.200

     PseudoPot. # 2 for S  read from file:
     ~/pseudo/S.pw91-van_ak.UPF
     MD5 check sum: Not computed, couldn't open file
     Pseudo is Ultrasoft, Zval =  6.0
     Generated by new atomic code, or converted to UPF format
     Using radial grid of  811 points,  6 beta functions with: 
                l(1) =   0
                l(2) =   0
                l(3) =   1
                l(4) =   1
                l(5) =   2
                l(6) =   2
     Q(r) pseudized with  8 coefficients,  rinner =    1.100   1.100   1.100
                                                       1.100   1.100

     atomic species   valence    mass     pseudopotential
        Mo             6.00    95.50000     Mo( 1.00)
        S              6.00    32.06500     S ( 1.00)

     No symmetry found



   Cartesian axes

     site n.     atom                  positions (alat units)
         1           Mo  tau(   1) = (   0.4166405   0.5765124   0.1558875  )
         2           Mo  tau(   2) = (   0.8254276   1.3026983   5.5158896  )
         3           Mo  tau(   3) = (   0.4780156   0.1267550   0.0988676  )
         4           Mo  tau(   4) = (   1.3066869   0.8856377   5.5749107  )
         5           Mo  tau(   5) = (   0.5366552   0.2861564   1.3363298  )
         6           Mo  tau(   6) = (   1.0367399   0.2858033   1.3372137  )
         7           Mo  tau(   7) = (   1.2650027   0.7193011   1.3368829  )
         8           Mo  tau(   8) = (   0.7645437   0.7193542   1.3368863  )
         9           Mo  tau(   9) = (   0.6903318   0.7275968   4.3977243  )
        10           Mo  tau(  10) = (   1.1905299   0.7275350   4.3982777  )
        11           Mo  tau(  11) = (   1.4184239   1.1608367   4.3972028  )
        12           Mo  tau(  12) = (   0.9185391   1.1609113   4.3978793  )
        13           S   tau(  13) = (   0.7481196   0.5401599   5.5535609  )
        14           S   tau(  14) = (   0.2954922   0.6326640   5.2873854  )
        15           S   tau(  15) = (   0.6265688   0.9690179   5.5833656  )
        16           S   tau(  16) = (   1.0586403   1.0104084   5.4068011  )
        17           S   tau(  17) = (   0.7904677   0.1412391   1.0873691  )
        18           S   tau(  18) = (   0.2899168   0.1411565   1.0872100  )
        19           S   tau(  19) = (   0.5183539   0.5749064   1.0863544  )
        20           S   tau(  20) = (   1.0181874   0.5743567   1.0883133  )
        21           S   tau(  21) = (   0.9439311   0.5831082   4.1479931  )
        22           S   tau(  22) = (   0.4436066   0.5828003   4.1480896  )
        23           S   tau(  23) = (   0.6720322   1.0161347   4.1477916  )
        24           S   tau(  24) = (   1.1716114   1.0157753   4.1480146  )
        25           S   tau(  25) = (   1.1802250   0.8668101   0.2668171  )
        26           S   tau(  26) = (   0.1591643   0.0421219   0.0905629  )
        27           S   tau(  27) = (   0.4933763   0.3794952   0.3843031  )
        28           S   tau(  28) = (   1.0353762   0.4701704   0.1199099  )
        29           S   tau(  29) = (   1.2459949   1.0076716   1.5866530  )
        30           S   tau(  30) = (   0.7466645   1.0077243   1.5867819  )
        31           S   tau(  31) = (   0.5182563   0.5741487   1.5867381  )
        32           S   tau(  32) = (   1.0182749   0.5744446   1.5867714  )
        33           S   tau(  33) = (   0.9438497   0.5822035   4.6470217  )
        34           S   tau(  34) = (   0.4444251   0.5825018   4.6482687  )
        35           S   tau(  35) = (   0.6717745   1.0161999   4.6468254  )
        36           S   tau(  36) = (   1.1724718   1.0162032   4.6475742  )

     number of k points=     5  Marzari-Vanderbilt smearing, width (Ry)=  0.0200
                       cart. coord. in units 2pi/alat
        k(    1) = (   0.0000000   0.0000000   0.0000000), wk =   0.2222222
        k(    2) = (   0.0000000   0.3846371  -0.0372631), wk =   0.4444444
        k(    3) = (   0.3333333  -0.1754496   0.0084879), wk =   0.4444444
        k(    4) = (   0.3333333   0.2091874  -0.0287752), wk =   0.4444444
        k(    5) = (   0.3333333  -0.5600867   0.0457510), wk =   0.4444444

     Dense  grid:   997791 G-vectors     FFT dimensions: (  75,  72, 432)

     Smooth grid:   352861 G-vectors     FFT dimensions: (  54,  54, 300)

     Estimated max dynamical RAM per process >     155.41 MB

     Estimated total dynamical RAM >       6.07 GB

     Initial potential from superposition of free atoms

     starting charge  215.98107, renormalised to  216.00000

     negative rho (up, down):  9.749E-04 0.000E+00
     Starting wfcs are  204 randomized atomic wfcs

     total cpu time spent up to now is        7.5 secs

     Self-consistent Calculation

     iteration #  1     ecut=    45.00 Ry     beta= 0.70
     Davidson diagonalization with overlap
     ethr =  1.00E-02,  avg # of iterations =  2.6

     negative rho (up, down):  1.004E-04 0.000E+00

     total cpu time spent up to now is       19.0 secs

     total energy              =    -843.23779736 Ry
     Harris-Foulkes estimate   =    -845.47939005 Ry
     estimated scf accuracy    <       5.74636835 Ry

     iteration #  2     ecut=    45.00 Ry     beta= 0.70
     Davidson diagonalization with overlap
     ethr =  2.66E-03,  avg # of iterations =  3.0

     negative rho (up, down):  1.333E-05 0.000E+00

     total cpu time spent up to now is       29.1 secs

     total energy              =    -844.25911064 Ry
     Harris-Foulkes estimate   =    -844.42544076 Ry
     estimated scf accuracy    <       0.84417190 Ry

     iteration #  3     ecut=    45.00 Ry     beta= 0.70
     Davidson diagonalization with overlap
     ethr =  3.91E-04,  avg # of iterations =  2.2

     negative rho (up, down):  3.839E-07 0.000E+00

     total cpu time spent up to now is       37.9 secs

     total energy              =    -844.29747277 Ry
     Harris-Foulkes estimate   =    -844.34994109 Ry
     estimated scf accuracy    <       0.21175894 Ry

     iteration #  4     ecut=    45.00 Ry     beta= 0.70
     Davidson diagonalization with overlap
     ethr =  9.80E-05,  avg # of iterations =  5.4

     negative rho (up, down):  1.878E-08 0.000E+00

     total cpu time spent up to now is       48.9 secs

     total energy              =    -844.32347340 Ry
     Harris-Foulkes estimate   =    -844.33750166 Ry
     estimated scf accuracy    <       0.04190426 Ry

     iteration #  5     ecut=    45.00 Ry     beta= 0.70
     Davidson diagonalization with overlap
     c_bands:  1 eigenvalues not converged
     ethr =  1.94E-05,  avg # of iterations =  8.8

     total cpu time spent up to now is       62.2 secs

     total energy              =    -844.32833674 Ry
     Harris-Foulkes estimate   =    -844.33076825 Ry
     estimated scf accuracy    <       0.00760211 Ry

     iteration #  6     ecut=    45.00 Ry     beta= 0.70
     Davidson diagonalization with overlap
     ethr =  3.52E-06,  avg # of iterations =  6.0

     total cpu time spent up to now is       74.9 secs

     total energy              =    -844.32741460 Ry
     Harris-Foulkes estimate   =    -844.32994004 Ry
     estimated scf accuracy    <       0.00630755 Ry

     iteration #  7     ecut=    45.00 Ry     beta= 0.70
     Davidson diagonalization with overlap
     ethr =  2.92E-06,  avg # of iterations =  2.4

     total cpu time spent up to now is       83.8 secs

     total energy              =    -844.32825945 Ry
     Harris-Foulkes estimate   =    -844.32811400 Ry
     estimated scf accuracy    <       0.00142311 Ry

     iteration #  8     ecut=    45.00 Ry     beta= 0.70
     Davidson diagonalization with overlap
     ethr =  6.59E-07,  avg # of iterations =  1.4

     negative rho (up, down):  1.129E-07 0.000E+00

     total cpu time spent up to now is       91.8 secs

     total energy              =    -844.32889402 Ry
     Harris-Foulkes estimate   =    -844.32832855 Ry
     estimated scf accuracy    <       0.00101767 Ry

     iteration #  9     ecut=    45.00 Ry     beta= 0.70
     Davidson diagonalization with overlap
     ethr =  4.71E-07,  avg # of iterations =  2.6

     negative rho (up, down):  7.231E-05 0.000E+00

     total cpu time spent up to now is      100.8 secs

     total energy              =    -844.32921681 Ry
     Harris-Foulkes estimate   =    -844.32895151 Ry
     estimated scf accuracy    <       0.00074525 Ry

     iteration # 10     ecut=    45.00 Ry     beta= 0.70
     Davidson diagonalization with overlap
     ethr =  3.45E-07,  avg # of iterations =  1.0

     negative rho (up, down):  1.082E-03 0.000E+00

     total cpu time spent up to now is      109.3 secs

     total energy              =    -844.32938062 Ry
     Harris-Foulkes estimate   =    -844.32924252 Ry
     estimated scf accuracy    <       0.00038518 Ry

     iteration # 11     ecut=    45.00 Ry     beta= 0.70
     Davidson diagonalization with overlap
     ethr =  1.78E-07,  avg # of iterations =  3.0

     negative rho (up, down):  1.640E-03 0.000E+00

     total cpu time spent up to now is      119.5 secs

     total energy              =    -844.32939681 Ry
     Harris-Foulkes estimate   =    -844.32941975 Ry
     estimated scf accuracy    <       0.00018490 Ry

     iteration # 12     ecut=    45.00 Ry     beta= 0.70
     Davidson diagonalization with overlap
     ethr =  8.56E-08,  avg # of iterations =  3.4

     negative rho (up, down):  1.935E-03 0.000E+00

     total cpu time spent up to now is      129.6 secs

     total energy              =    -844.32941883 Ry
     Harris-Foulkes estimate   =    -844.32941581 Ry
     estimated scf accuracy    <       0.00007111 Ry

     iteration # 13     ecut=    45.00 Ry     beta= 0.70
     Davidson diagonalization with overlap
     ethr =  3.29E-08,  avg # of iterations =  1.8

     negative rho (up, down):  1.782E-03 0.000E+00

     total cpu time spent up to now is      138.8 secs

     total energy              =    -844.32941614 Ry
     Harris-Foulkes estimate   =    -844.32942093 Ry
     estimated scf accuracy    <       0.00005719 Ry

     iteration # 14     ecut=    45.00 Ry     beta= 0.70
     Davidson diagonalization with overlap
     ethr =  2.65E-08,  avg # of iterations =  1.0

     negative rho (up, down):  1.962E-03 0.000E+00

     total cpu time spent up to now is      147.4 secs

     total energy              =    -844.32941449 Ry
     Harris-Foulkes estimate   =    -844.32941741 Ry
     estimated scf accuracy    <       0.00004904 Ry

     iteration # 15     ecut=    45.00 Ry     beta= 0.70
     Davidson diagonalization with overlap
     ethr =  2.27E-08,  avg # of iterations =  1.0

     negative rho (up, down):  2.109E-03 0.000E+00

     total cpu time spent up to now is      156.1 secs

     total energy              =    -844.32940611 Ry
     Harris-Foulkes estimate   =    -844.32941517 Ry
     estimated scf accuracy    <       0.00004068 Ry

     iteration # 16     ecut=    45.00 Ry     beta= 0.70
     Davidson diagonalization with overlap
     ethr =  1.88E-08,  avg # of iterations =  1.2

     negative rho (up, down):  1.647E-03 0.000E+00

     total cpu time spent up to now is      164.9 secs

     total energy              =    -844.32939246 Ry
     Harris-Foulkes estimate   =    -844.32940704 Ry
     estimated scf accuracy    <       0.00002680 Ry

     iteration # 17     ecut=    45.00 Ry     beta= 0.70
     Davidson diagonalization with overlap
     ethr =  1.24E-08,  avg # of iterations =  3.4

     negative rho (up, down):  1.410E-03 0.000E+00

     total cpu time spent up to now is      175.6 secs

     total energy              =    -844.32938899 Ry
     Harris-Foulkes estimate   =    -844.32939479 Ry
     estimated scf accuracy    <       0.00000987 Ry

     iteration # 18     ecut=    45.00 Ry     beta= 0.70
     Davidson diagonalization with overlap
     ethr =  4.57E-09,  avg # of iterations =  2.8

     negative rho (up, down):  1.291E-03 0.000E+00

     total cpu time spent up to now is      185.3 secs

     total energy              =    -844.32938667 Ry
     Harris-Foulkes estimate   =    -844.32938965 Ry
     estimated scf accuracy    <       0.00000374 Ry

     iteration # 19     ecut=    45.00 Ry     beta= 0.70
     Davidson diagonalization with overlap
     ethr =  1.73E-09,  avg # of iterations =  3.2

     negative rho (up, down):  1.171E-03 0.000E+00

     total cpu time spent up to now is      195.5 secs

     total energy              =    -844.32938425 Ry
     Harris-Foulkes estimate   =    -844.32938700 Ry
     estimated scf accuracy    <       0.00000159 Ry

     iteration # 20     ecut=    45.00 Ry     beta= 0.70
     Davidson diagonalization with overlap
     ethr =  7.37E-10,  avg # of iterations =  2.8

     negative rho (up, down):  1.362E-03 0.000E+00

     total cpu time spent up to now is      203.9 secs

     End of self-consistent calculation

          k = 0.0000 0.0000 0.0000 ( 44117 PWs)   bands (ev):

   -13.4732 -12.9211 -12.9179 -12.7487 -11.7768 -11.7512 -11.7477 -11.5628
   -11.1874 -11.1842 -11.1588 -11.0915 -11.0865 -11.0837 -10.9978 -10.9947
   -10.9942 -10.9920 -10.8714 -10.8681 -10.7419 -10.7385 -10.6541 -10.4222
    -5.3096  -4.9964  -4.6124  -4.6039  -4.6008  -4.5852  -4.5695  -4.5663
    -4.5049  -4.5016  -4.3938  -4.3891  -3.9813  -3.6908  -3.6870  -3.6390
    -3.6352  -3.6038  -3.5794  -3.5757  -3.4779  -3.4246  -3.1351  -3.0845
    -2.8995  -2.8957  -2.8750  -2.8719  -2.8625  -2.8585  -2.7306  -2.6359
    -2.4300  -2.4262  -2.2405  -2.2378  -1.9127  -1.9095  -1.8765  -1.7636
    -1.6398  -1.6116  -1.6093  -1.6092  -1.6057  -1.3490  -1.2240  -1.0932
    -1.0906  -0.8999  -0.8919  -0.7934  -0.7715  -0.7430  -0.7070  -0.6673
    -0.6582  -0.6537  -0.6502  -0.4201  -0.4178  -0.3959  -0.0390  -0.0359
     0.0076   0.0107   0.2170   0.2389   0.2916   0.2942   0.3130   0.3159
     0.4808   0.4841   0.5666   0.5698   0.6362   0.6403   0.9548   1.0011
     1.0050   1.4722   1.7881   2.0045   2.1726   2.5028   3.0259   3.1641
     3.1670   3.2377   3.2406   3.2629   3.2911   3.2940   3.3783   3.4050
     3.7368   3.7477   3.7527   3.8034   3.8063   3.8398   3.8439   3.8569
     3.8773   3.8803

          k = 0.0000 0.3846-0.0373 ( 44071 PWs)   bands (ev):

   -13.2033 -12.8175 -12.5411 -12.5379 -11.9674 -11.6461 -11.6428 -11.5632
   -11.5594 -11.4833 -11.4129 -11.1640 -11.1607 -11.1283 -11.1251 -11.0691
   -11.0659 -11.0250 -10.9233 -10.9200 -10.7945 -10.7912 -10.7148 -10.4185
    -5.4564  -4.9257  -4.5638  -4.3209  -4.1261  -4.1228  -4.0503  -4.0470
    -4.0121  -3.9863  -3.9829  -3.9740  -3.9695  -3.7096  -3.7063  -3.6776
    -3.6307  -3.6274  -3.4869  -3.2865  -3.1149  -2.9875  -2.9835  -2.9027
    -2.7370  -2.7223  -2.7138  -2.6838  -2.6801  -2.5999  -2.5954  -2.5552
    -2.4064  -2.2383  -2.1534  -2.1503  -2.1334  -2.1309  -2.0666  -1.9540
    -1.9240  -1.9214  -1.6944  -1.6912  -1.6508  -1.5908  -1.5881  -1.3590
    -1.2971  -1.2936  -1.2764  -1.0322  -1.0286  -0.9701  -0.9159  -0.9134
    -0.7890  -0.7860  -0.6438  -0.6399  -0.5910  -0.5869  -0.5166  -0.5121
    -0.4825  -0.3451  -0.1548  -0.1519   0.0608   0.0646   0.1925   0.2136
     0.2165   0.5629   0.6396   0.6423   0.7402   0.7433   0.7543   0.7579
     0.9171   1.3381   1.7861   2.0740   2.2635   2.5731   2.7268   3.0485
     3.1776   3.1815   3.2375   3.2475   3.2636   3.2801   3.2823   3.2901
     3.2947   3.3253   3.4335   3.4393   3.5331   3.6776   3.6817   3.7025
     3.7052   3.8099

          k = 0.3333-0.1754 0.0085 ( 44152 PWs)   bands (ev):

   -13.2310 -12.7331 -12.5607 -12.5575 -11.9939 -11.7137 -11.7104 -11.5864
   -11.5826 -11.4861 -11.3309 -11.2129 -11.2095 -11.1083 -11.0807 -11.0780
   -11.0356 -11.0324 -10.8274 -10.8240 -10.7808 -10.7620 -10.7586 -10.4224
    -5.1068  -4.9048  -4.5449  -4.4747  -4.1936  -4.1646  -4.1614  -4.1213
    -4.1181  -4.0041  -4.0007  -3.9892  -3.9834  -3.9034  -3.7578  -3.7548
    -3.7179  -3.7148  -3.4373  -3.2995  -3.1611  -3.0265  -3.0059  -3.0028
    -2.8253  -2.8214  -2.7225  -2.6409  -2.6366  -2.5979  -2.5938  -2.4603
    -2.3831  -2.2634  -2.2604  -2.1966  -2.1805  -2.1748  -2.1427  -2.0603
    -2.0568  -1.9455  -1.8327  -1.7819  -1.7758  -1.5573  -1.3088  -1.3057
    -1.2052  -1.2021  -1.0548  -1.0515  -1.0215  -0.7298  -0.7272  -0.6284
    -0.5961  -0.5912  -0.5770  -0.5732  -0.5681  -0.5651  -0.5481  -0.5430
    -0.4669  -0.1259  -0.0124  -0.0099  -0.0080  -0.0048   0.1646   0.1677
     0.3572   0.5680   0.5703   0.6317   0.6359   0.6725   0.6848   0.6892
     0.8285   1.4567   1.6481   1.8871   2.1581   2.6800   2.7456   2.9815
     3.1623   3.1847   3.1920   3.2521   3.2550   3.2795   3.2824   3.2903
     3.2948   3.4210   3.4242   3.5447   3.6767   3.6857   3.7787   3.8681
     3.8811   3.8846

          k = 0.3333 0.2092-0.0288 ( 44060 PWs)   bands (ev):

   -13.2087 -12.7780 -12.5213 -12.5181 -11.9773 -11.5822 -11.5784 -11.5703
   -11.5388 -11.5361 -11.1964 -11.1929 -11.1871 -11.1461 -11.1432 -11.0894
   -11.0442 -11.0409 -10.9526 -10.9493 -10.8890 -10.8857 -10.7131 -10.5535
    -5.2975  -4.8918  -4.5444  -4.3611  -4.2499  -4.0544  -4.0511  -4.0218
    -4.0186  -3.9734  -3.9699  -3.9590  -3.9545  -3.8333  -3.6205  -3.6172
    -3.5816  -3.5782  -3.4187  -3.2223  -3.0431  -2.9984  -2.9546  -2.9515
    -2.8344  -2.6904  -2.6862  -2.6502  -2.6457  -2.6306  -2.6081  -2.6046
    -2.4084  -2.2689  -2.0733  -1.9951  -1.9914  -1.9711  -1.9687  -1.8909
    -1.8888  -1.8881  -1.8850  -1.7488  -1.7138  -1.6162  -1.5942  -1.5805
    -1.2462  -1.2383  -1.2353  -1.1421  -1.1399  -1.1245  -1.1207  -1.0120
    -1.0092  -0.9418  -0.6946  -0.6918  -0.6688  -0.6654  -0.4542  -0.4486
    -0.4049  -0.3271  -0.3245  -0.3240   0.1362   0.1393   0.2628   0.2706
     0.2765   0.5981   0.7553   0.7579   0.7929   0.7963   0.8095   0.8133
     0.9611   1.7212   1.8579   2.0159   2.2844   2.4696   2.8559   3.1452
     3.1480   3.1886   3.1918   3.1976   3.2012   3.3027   3.3944   3.4039
     3.4077   3.4103   3.4534   3.5142   3.5211   3.5610   3.6505   3.6559
     3.6566   3.6594

          k = 0.3333-0.5601 0.0458 ( 44119 PWs)   bands (ev):

   -13.0082 -12.8252 -12.1043 -11.9443 -11.9412 -11.8962 -11.8928 -11.8471
   -11.8440 -11.5494 -11.3677 -11.2952 -11.2920 -11.2446 -11.2412 -11.1910
   -11.1877 -11.0835 -10.8357 -10.8326 -10.7365 -10.6956 -10.6924 -10.4828
    -5.2161  -5.0329  -4.3684  -4.3392  -4.1615  -4.1585  -4.1482  -3.8898
    -3.6873  -3.6835  -3.6734  -3.6702  -3.6614  -3.6569  -3.4996  -3.3838
    -3.3804  -3.2364  -3.1897  -2.8592  -2.8559  -2.8456  -2.7593  -2.6343
    -2.6290  -2.6244  -2.6211  -2.6168  -2.6114  -2.5249  -2.4911  -2.4875
    -2.4632  -2.4554  -2.4367  -2.3814  -2.3780  -2.3639  -2.3604  -2.2518
    -2.1465  -2.0179  -2.0146  -1.9476  -1.9445  -1.9315  -1.9264  -1.8175
    -1.7665  -1.7635  -1.6904  -1.5337  -1.1965  -1.0618  -1.0582  -0.8237
    -0.7960  -0.7933  -0.7212  -0.7181  -0.6725  -0.6695  -0.4177   0.0278
     0.0327   0.0448   0.0675   0.0739   0.0935   0.0973   0.1816   0.2818
     0.2852   0.3335   0.3366   0.4273   0.4305   0.5619   0.9687   1.1352
     1.1382   1.2039   1.9724   2.0986   2.2950   2.4994   2.8080   2.8517
     2.8548   2.9214   2.9271   2.9494   2.9594   2.9919   2.9969   3.0285
     3.2335   3.3727   3.3975   3.4005   3.5282   3.5388   3.5541   3.5877
     3.6316   3.6337

     the Fermi energy is     2.1490 ev

!    total energy              =    -844.32938752 Ry
     Harris-Foulkes estimate   =    -844.32938441 Ry
     estimated scf accuracy    <       0.00000071 Ry

     The total energy is the sum of the following terms:

     one-electron contribution =   -6257.96391545 Ry
     hartree contribution      =    3211.45066160 Ry
     xc contribution           =    -335.81651576 Ry
     ewald contribution        =    2538.00288738 Ry
     smearing contrib. (-TS)   =      -0.00250530 Ry

     convergence has been achieved in  20 iterations

     negative rho (up, down):  1.362E-03 0.000E+00

     Forces acting on atoms (cartesian axes, Ry/au):

     atom    1 type  1   force =    -0.18824620    0.26734291   -0.10207041
     atom    2 type  1   force =     0.18357115   -0.27285415    0.12081200
     atom    3 type  1   force =    -0.00866894    0.18488409    0.03833920
     atom    4 type  1   force =     0.00856394   -0.18333290   -0.04758641
     atom    5 type  1   force =    -0.00507767   -0.00053040    0.00212026
     atom    6 type  1   force =    -0.00531920   -0.00025392    0.00090777
     atom    7 type  1   force =    -0.00561755   -0.00061289    0.00129036
     atom    8 type  1   force =    -0.00480022   -0.00067637    0.00135864
     atom    9 type  1   force =    -0.00513468   -0.00075271   -0.00114367
     atom   10 type  1   force =    -0.00499270   -0.00049073   -0.00215133
     atom   11 type  1   force =    -0.00557264   -0.00010489   -0.00084977
     atom   12 type  1   force =    -0.00471379   -0.00001691   -0.00122827
     atom   13 type  2   force =     0.08626871   -0.13315960   -0.24162220
     atom   14 type  2   force =    -0.08900089    0.17004935   -0.30639968
     atom   15 type  2   force =     0.23100618    0.04995186   -0.19979466
     atom   16 type  2   force =    -0.20054379    0.10272295   -0.18216253
     atom   17 type  2   force =     0.00231343   -0.00007669    0.00009525
     atom   18 type  2   force =     0.00294273    0.00031680    0.00050996
     atom   19 type  2   force =     0.00250293   -0.00054900    0.00273686
     atom   20 type  2   force =     0.00279381    0.00034303   -0.00190822
     atom   21 type  2   force =     0.00284939    0.00000299    0.00169192
     atom   22 type  2   force =     0.00306873    0.00014322    0.00229715
     atom   23 type  2   force =     0.00285192   -0.00004658    0.00169546
     atom   24 type  2   force =     0.00315731    0.00028276    0.00182063
     atom   25 type  2   force =     0.20773339   -0.10881852    0.18494865
     atom   26 type  2   force =    -0.23435754   -0.05230082    0.19214654
     atom   27 type  2   force =     0.08829462   -0.16012823    0.30061205
     atom   28 type  2   force =    -0.08535760    0.13442467    0.24487377
     atom   29 type  2   force =     0.00280378    0.00062988   -0.00161192
     atom   30 type  2   force =     0.00254196    0.00033317   -0.00189854
     atom   31 type  2   force =     0.00274044    0.00057646   -0.00211387
     atom   32 type  2   force =     0.00259005    0.00048134   -0.00153592
     atom   33 type  2   force =     0.00231625    0.00120290    0.00011949
     atom   34 type  2   force =     0.00199970    0.00081956   -0.00331572
     atom   35 type  2   force =     0.00287795    0.00010290    0.00042179
     atom   36 type  2   force =     0.00161505    0.00009446   -0.00140463

     Total force =     1.048358     Total SCF correction =     0.002287
 
     init_run     :      6.23s CPU      6.52s WALL (       1 calls)
     electrons    :    188.24s CPU    196.48s WALL (       1 calls)
     forces       :      3.45s CPU      3.62s WALL (       1 calls)

     Called by init_run:
     wfcinit      :      3.32s CPU      3.44s WALL (       1 calls)
     potinit      :      0.70s CPU      0.71s WALL (       1 calls)
     hinit0       :      0.89s CPU      0.94s WALL (       1 calls)

     Called by electrons:
     c_bands      :    126.96s CPU    129.70s WALL (      20 calls)
     sum_band     :     32.50s CPU     35.58s WALL (      20 calls)
     v_of_rho     :      2.65s CPU      2.75s WALL (      21 calls)
     newd         :      8.08s CPU      9.58s WALL (      21 calls)
     mix_rho      :     18.14s CPU     19.03s WALL (      20 calls)

     Called by c_bands:
     init_us_2    :      3.74s CPU      3.75s WALL (     210 calls)
     cegterg      :    116.83s CPU    119.48s WALL (     100 calls)

     Called by sum_band:
     sum_band:bec :      0.16s CPU      0.17s WALL (     100 calls)
     addusdens    :     13.36s CPU     16.16s WALL (      20 calls)

     Called by *egterg:
     h_psi        :     67.09s CPU     68.69s WALL (     400 calls)
     s_psi        :     12.82s CPU     12.83s WALL (     400 calls)
     g_psi        :      0.38s CPU      0.38s WALL (     295 calls)
     cdiaghg      :     15.72s CPU     15.90s WALL (     395 calls)

     Called by h_psi:
     h_psi:pot    :     66.33s CPU     67.49s WALL (     400 calls)
     h_psi:calbec :     13.87s CPU     14.31s WALL (     400 calls)
     vloc_psi     :     39.24s CPU     39.76s WALL (     400 calls)
     add_vuspsi   :     13.21s CPU     13.42s WALL (     400 calls)

     General routines
     calbec       :     20.58s CPU     21.15s WALL (     520 calls)
     fft          :      2.74s CPU      2.92s WALL (     282 calls)
     ffts         :      7.48s CPU      8.24s WALL (    5494 calls)
     fftw         :     44.11s CPU     44.69s WALL (   72210 calls)
     interpolate  :      0.26s CPU      0.28s WALL (      21 calls)
 
     Parallel routines
     fft_scatt_xy :      6.09s CPU      6.18s WALL (   77986 calls)
     fft_scatt_yz :     23.00s CPU     24.03s WALL (   77986 calls)
 
     PWSCF        :   3m18.73s CPU   3m27.65s WALL

 
   This run was terminated on:  10:49:35  14Oct2021            

=------------------------------------------------------------------------------=
   JOB DONE.
=------------------------------------------------------------------------------=
