
     Program PWSCF v.6.4 starts on 19Nov2021 at 20:54:45 

     This program is part of the open-source Quantum ESPRESSO suite
     for quantum simulation of materials; please cite
         "P. Giannozzi et al., J. Phys.:Condens. Matter 21 395502 (2009);
         "P. Giannozzi et al., J. Phys.:Condens. Matter 29 465901 (2017);
          URL http://www.quantum-espresso.org", 
     in publications or presentations arising from this work. More details at
     http://www.quantum-espresso.org/quote

     Parallel version (MPI), running on    40 processors

     MPI processes distributed on     1 nodes
     R & G space division:  proc/nbgrp/npool/nimage =      40
     Waiting for input...
     Reading input from standard input
Warning: card    &IONS ignored
Warning: card      ION_DYNAMICS = 'BFGS' ignored
Warning: card   / ignored
Warning: card    &CELL ignored
Warning: card      CELL_DYNAMICS = 'BFGS', ignored
Warning: card    / ignored

     Current dimensions of program PWSCF are:
     Max number of different atomic species (ntypx) = 10
     Max number of k-points (npk) =  40000
     Max angular momentum in pseudopotentials (lmaxx) =  3

     Subspace diagonalization in iterative solution of the eigenvalue problem:
     one sub-group per band group will be used
     scalapack distributed-memory algorithm (size of sub-group:  4*  4 procs)

 
     Parallelization info
     --------------------
     sticks:   dense  smooth     PW     G-vecs:    dense   smooth      PW
     Min         179      90     24                16408     5803     816
     Max         180      91     25                16414     5806     822
     Sum        7181    3609    979               656425   232169   32717
 


     bravais-lattice index     =            0
     lattice parameter (alat)  =      11.8583  a.u.
     unit-cell volume          =    5691.7146 (a.u.)^3
     number of atoms/cell      =           36
     number of atomic types    =            2
     number of electrons       =       216.00
     number of Kohn-Sham states=          130
     kinetic-energy cutoff     =      45.0000  Ry
     charge density cutoff     =     360.0000  Ry
     convergence threshold     =      1.0E-06
     mixing beta               =       0.7000
     number of iterations used =            8  local-TF  mixing
     Exchange-correlation      = SLA PW GGX GGC ( 1  4  2  2 0 0)

     celldm(1)=  11.858324  celldm(2)=   0.000000  celldm(3)=   0.000000
     celldm(4)=   0.000000  celldm(5)=   0.000000  celldm(6)=   0.000000

     crystal axes: (cart. coord. in units of alat)
               a(1) = (   1.000000   0.000000   0.000000 )  
               a(2) = (   0.041856   1.785440   0.000000 )  
               a(3) = (   0.204609   0.146374   1.911736 )  

     reciprocal axes: (cart. coord. in units 2 pi/alat)
               b(1) = (  1.000000 -0.023443 -0.105233 )  
               b(2) = (  0.000000  0.560086 -0.042884 )  
               b(3) = (  0.000000  0.000000  0.523085 )  


     PseudoPot. # 1 for Mo read from file:
     ~/pseudo/Mo.pw91-n-van.UPF
     MD5 check sum: Not computed, couldn't open file
     Pseudo is Ultrasoft + core correction, Zval =  6.0
     Generated by new atomic code, or converted to UPF format
     Using radial grid of  965 points,  3 beta functions with: 
                l(1) =   1
                l(2) =   2
                l(3) =   2
     Q(r) pseudized with  8 coefficients,  rinner =    1.000   1.000   1.000
                                                       1.200   1.200

     PseudoPot. # 2 for S  read from file:
     ~/pseudo/S.pw91-van_ak.UPF
     MD5 check sum: Not computed, couldn't open file
     Pseudo is Ultrasoft, Zval =  6.0
     Generated by new atomic code, or converted to UPF format
     Using radial grid of  811 points,  6 beta functions with: 
                l(1) =   0
                l(2) =   0
                l(3) =   1
                l(4) =   1
                l(5) =   2
                l(6) =   2
     Q(r) pseudized with  8 coefficients,  rinner =    1.100   1.100   1.100
                                                       1.100   1.100

     atomic species   valence    mass     pseudopotential
        Mo             6.00    95.50000     Mo( 1.00)
        S              6.00    32.06500     S ( 1.00)

     No symmetry found



   Cartesian axes

     site n.     atom                  positions (alat units)
         1           Mo  tau(   1) = (   0.2096449   0.5768201   1.2699454  )
         2           Mo  tau(   2) = (   0.9715736   1.0196556   1.2649132  )
         3           Mo  tau(   3) = (   0.7057317   0.5757116   1.2684894  )
         4           Mo  tau(   4) = (   0.4723336   1.0185600   1.2598361  )
         5           Mo  tau(   5) = (   0.7415503   1.4745724   1.2577117  )
         6           Mo  tau(   6) = (   0.2344262   1.4718177   1.2585102  )
         7           Mo  tau(   7) = (   0.4515221   0.1299559   1.2713349  )
         8           Mo  tau(   8) = (   0.9488840   0.1267515   1.2670077  )
         9           Mo  tau(   9) = (   0.8922542   1.5697817   0.3882415  )
        10           Mo  tau(  10) = (   0.3408774   1.5534013   0.3530565  )
        11           Mo  tau(  11) = (   0.1717575   0.8748227   0.3822538  )
        12           Mo  tau(  12) = (   0.6062454   0.8966745   0.3755483  )
        13           S   tau(  13) = (   0.9589723   0.7259267   1.5244575  )
        14           S   tau(  14) = (   0.1966064   0.2834201   1.5241148  )
        15           S   tau(  15) = (   0.4598938   0.7311519   1.5243495  )
        16           S   tau(  16) = (   0.7045846   0.2820141   1.5238197  )
        17           S   tau(  17) = (   0.3806190   0.7901322   0.6710067  )
        18           S   tau(  18) = (   0.9083302   1.1440407   0.3353235  )
        19           S   tau(  19) = (   0.9599239   0.7236123   1.0141884  )
        20           S   tau(  20) = (   0.2022130   0.2798454   1.0197440  )
        21           S   tau(  21) = (   0.4649230   0.7189560   0.9840895  )
        22           S   tau(  22) = (   0.6990027   0.2784028   1.0164860  )
        23           S   tau(  23) = (   0.3561642   1.1632687   0.2276526  )
        24           S   tau(  24) = (   0.8915940   0.6698783   0.2862705  )
        25           S   tau(  25) = (   0.7197252   1.1764327   1.5112808  )
        26           S   tau(  26) = (   0.2277968   1.1756538   1.5134834  )
        27           S   tau(  27) = (   0.7261669   1.1752387   1.0131683  )
        28           S   tau(  28) = (   0.2221959   1.1726075   1.0127768  )
        29           S   tau(  29) = (   0.4900940   1.6252326   1.0080391  )
        30           S   tau(  30) = (   0.9955168   1.6198334   0.9688261  )
        31           S   tau(  31) = (   0.1374692   1.6063318   0.6682358  )
        32           S   tau(  32) = (   0.6076863   1.8019984   0.3799672  )
        33           S   tau(  33) = (   0.4882346   1.6134272   1.5167195  )
        34           S   tau(  34) = (   0.9893595   1.6187785   1.5189494  )
        35           S   tau(  35) = (   0.0985560   1.6630814   0.1145794  )
        36           S   tau(  36) = (   0.6322431   1.3148998   0.3188797  )

     number of k points=     8  Marzari-Vanderbilt smearing, width (Ry)=  0.0200
                       cart. coord. in units 2pi/alat
        k(    1) = (   0.0000000   0.0000000   0.0000000), wk =   0.1666667
        k(    2) = (   0.0000000   0.0000000  -0.2615424), wk =   0.1666667
        k(    3) = (   0.0000000  -0.2800430   0.0214418), wk =   0.1666667
        k(    4) = (   0.0000000  -0.2800430  -0.2401006), wk =   0.1666667
        k(    5) = (   0.3333333  -0.0078143  -0.0350777), wk =   0.3333333
        k(    6) = (   0.3333333  -0.0078143  -0.2966200), wk =   0.3333333
        k(    7) = (   0.3333333  -0.2878574  -0.0136359), wk =   0.3333333
        k(    8) = (   0.3333333  -0.2878574  -0.2751783), wk =   0.3333333

     Dense  grid:   656425 G-vectors     FFT dimensions: (  72, 128, 144)

     Smooth grid:   232169 G-vectors     FFT dimensions: (  54,  96, 100)

     Estimated max dynamical RAM per process >     108.35 MB

     Estimated total dynamical RAM >       4.23 GB

     Initial potential from superposition of free atoms

     starting charge  215.98107, renormalised to  216.00000
     Starting wfcs are  204 randomized atomic wfcs

     total cpu time spent up to now is        5.2 secs

     Self-consistent Calculation

     iteration #  1     ecut=    45.00 Ry     beta= 0.70
     Davidson diagonalization with overlap
     ethr =  1.00E-02,  avg # of iterations =  2.0

     total cpu time spent up to now is       15.6 secs

     total energy              =    -843.11879829 Ry
     Harris-Foulkes estimate   =    -845.46873903 Ry
     estimated scf accuracy    <       6.01515190 Ry

     iteration #  2     ecut=    45.00 Ry     beta= 0.70
     Davidson diagonalization with overlap
     ethr =  2.78E-03,  avg # of iterations =  2.2

     total cpu time spent up to now is       23.4 secs

     total energy              =    -844.01211310 Ry
     Harris-Foulkes estimate   =    -844.45470566 Ry
     estimated scf accuracy    <       2.06470292 Ry

     iteration #  3     ecut=    45.00 Ry     beta= 0.70
     Davidson diagonalization with overlap
     ethr =  9.56E-04,  avg # of iterations =  3.0

     total cpu time spent up to now is       30.4 secs

     total energy              =    -844.20445114 Ry
     Harris-Foulkes estimate   =    -844.44252635 Ry
     estimated scf accuracy    <       2.24874137 Ry

     iteration #  4     ecut=    45.00 Ry     beta= 0.70
     Davidson diagonalization with overlap
     ethr =  9.56E-04,  avg # of iterations =  1.8

     total cpu time spent up to now is       36.8 secs

     total energy              =    -844.25451170 Ry
     Harris-Foulkes estimate   =    -844.29272040 Ry
     estimated scf accuracy    <       0.24622907 Ry

     iteration #  5     ecut=    45.00 Ry     beta= 0.70
     Davidson diagonalization with overlap
     ethr =  1.14E-04,  avg # of iterations =  4.0

     total cpu time spent up to now is       44.9 secs

     total energy              =    -844.27779919 Ry
     Harris-Foulkes estimate   =    -844.29837120 Ry
     estimated scf accuracy    <       0.29990215 Ry

     iteration #  6     ecut=    45.00 Ry     beta= 0.70
     Davidson diagonalization with overlap
     ethr =  1.14E-04,  avg # of iterations =  1.0

     total cpu time spent up to now is       50.9 secs

     total energy              =    -844.27616446 Ry
     Harris-Foulkes estimate   =    -844.29191184 Ry
     estimated scf accuracy    <       0.14551324 Ry

     iteration #  7     ecut=    45.00 Ry     beta= 0.70
     Davidson diagonalization with overlap
     ethr =  6.74E-05,  avg # of iterations =  2.0

     total cpu time spent up to now is       57.4 secs

     total energy              =    -844.28363229 Ry
     Harris-Foulkes estimate   =    -844.28542906 Ry
     estimated scf accuracy    <       0.00964439 Ry

     iteration #  8     ecut=    45.00 Ry     beta= 0.70
     Davidson diagonalization with overlap
     ethr =  4.46E-06,  avg # of iterations =  8.2

     total cpu time spent up to now is       71.8 secs

     total energy              =    -844.28494384 Ry
     Harris-Foulkes estimate   =    -844.28606316 Ry
     estimated scf accuracy    <       0.01483143 Ry

     iteration #  9     ecut=    45.00 Ry     beta= 0.70
     Davidson diagonalization with overlap
     ethr =  4.46E-06,  avg # of iterations =  1.0

     total cpu time spent up to now is       77.8 secs

     total energy              =    -844.28507320 Ry
     Harris-Foulkes estimate   =    -844.28550658 Ry
     estimated scf accuracy    <       0.00294297 Ry

     iteration # 10     ecut=    45.00 Ry     beta= 0.70
     Davidson diagonalization with overlap
     ethr =  1.36E-06,  avg # of iterations =  2.9

     total cpu time spent up to now is       84.7 secs

     total energy              =    -844.28506943 Ry
     Harris-Foulkes estimate   =    -844.28522924 Ry
     estimated scf accuracy    <       0.00124207 Ry

     iteration # 11     ecut=    45.00 Ry     beta= 0.70
     Davidson diagonalization with overlap
     ethr =  5.75E-07,  avg # of iterations =  4.0

     total cpu time spent up to now is       92.3 secs

     total energy              =    -844.28516763 Ry
     Harris-Foulkes estimate   =    -844.28518841 Ry
     estimated scf accuracy    <       0.00008788 Ry

     iteration # 12     ecut=    45.00 Ry     beta= 0.70
     Davidson diagonalization with overlap
     ethr =  4.07E-08,  avg # of iterations =  6.4

     total cpu time spent up to now is      103.3 secs

     total energy              =    -844.28518203 Ry
     Harris-Foulkes estimate   =    -844.28519328 Ry
     estimated scf accuracy    <       0.00010218 Ry

     iteration # 13     ecut=    45.00 Ry     beta= 0.70
     Davidson diagonalization with overlap
     ethr =  4.07E-08,  avg # of iterations =  1.0

     total cpu time spent up to now is      109.3 secs

     total energy              =    -844.28518500 Ry
     Harris-Foulkes estimate   =    -844.28518680 Ry
     estimated scf accuracy    <       0.00001236 Ry

     iteration # 14     ecut=    45.00 Ry     beta= 0.70
     Davidson diagonalization with overlap
     ethr =  5.72E-09,  avg # of iterations =  4.0

     total cpu time spent up to now is      118.3 secs

     total energy              =    -844.28518533 Ry
     Harris-Foulkes estimate   =    -844.28518764 Ry
     estimated scf accuracy    <       0.00001114 Ry

     iteration # 15     ecut=    45.00 Ry     beta= 0.70
     Davidson diagonalization with overlap
     ethr =  5.16E-09,  avg # of iterations =  2.0

     total cpu time spent up to now is      124.8 secs

     End of self-consistent calculation

          k = 0.0000 0.0000 0.0000 ( 29033 PWs)   bands (ev):

   -11.6820  -9.9434  -9.7645  -8.8480  -8.7782  -8.3992  -8.1024  -7.8306
    -7.6265  -7.4711  -7.3964  -7.3761  -7.3319  -7.2884  -7.1857  -7.1558
    -7.1177  -7.0906  -7.0162  -6.9913  -6.9692  -6.4810  -6.3427  -6.2666
    -1.8904  -1.7711  -1.3551  -1.1045  -0.8558  -0.7960  -0.7169  -0.4176
    -0.3046  -0.2793  -0.1460  -0.0661  -0.0323   0.0162   0.0317   0.0912
     0.1597   0.2892   0.3413   0.7710   0.8142   0.9649   0.9986   1.1422
     1.1880   1.2468   1.2756   1.3471   1.3852   1.4837   1.5264   1.5601
     1.6729   1.7147   1.7264   1.7726   1.7916   1.8941   1.9781   2.0411
     2.0791   2.1461   2.1605   2.2770   2.3064   2.3676   2.4389   2.6508
     2.7577   2.7669   2.7948   2.8635   2.9606   3.0492   3.0803   3.2360
     3.2584   3.3992   3.4290   3.4958   3.5607   3.5651   3.7388   3.7512
     3.8300   3.8974   3.9437   3.9849   4.0865   4.1339   4.1995   4.2710
     4.2868   4.3211   4.4435   4.5324   4.6043   4.6576   4.8902   5.1573
     5.1701   5.4009   5.5386   5.7016   5.7384   5.9512   6.1474   6.2549
     6.3995   6.5289   6.7239   6.8310   6.9226   6.9710   7.0129   7.0509
     7.1015   7.1480   7.1818   7.2007   7.2561   7.3241   7.4447   7.5426
     7.5829   7.6061

          k = 0.0000 0.0000-0.2615 ( 29042 PWs)   bands (ev):

   -11.6820  -9.9434  -9.7642  -8.8471  -8.7807  -8.3990  -8.1049  -7.8277
    -7.6284  -7.4577  -7.4031  -7.3766  -7.3313  -7.2854  -7.1855  -7.1602
    -7.1174  -7.0911  -7.0169  -6.9915  -6.9698  -6.4817  -6.3441  -6.2660
    -1.8827  -1.7704  -1.3583  -1.1202  -0.8565  -0.7986  -0.7220  -0.4507
    -0.3103  -0.2313  -0.1420  -0.0790  -0.0270   0.0179   0.0300   0.0906
     0.1827   0.2857   0.3587   0.7988   0.8152   0.9699   1.0414   1.1172
     1.1843   1.2451   1.2781   1.3146   1.3855   1.4748   1.5116   1.5442
     1.5916   1.7173   1.7441   1.7800   1.8068   1.9241   1.9478   2.0190
     2.1032   2.1449   2.1578   2.2862   2.3050   2.3819   2.4575   2.5912
     2.7430   2.7646   2.8003   2.8975   2.9979   3.0578   3.1302   3.2474
     3.2633   3.3853   3.4003   3.4950   3.5601   3.5759   3.7350   3.7444
     3.7831   3.9168   3.9313   3.9984   4.1034   4.1129   4.1993   4.2737
     4.2998   4.3082   4.4315   4.5328   4.5456   4.6753   4.9226   5.1585
     5.1818   5.4247   5.5402   5.6869   5.7373   5.9561   6.1425   6.2501
     6.3730   6.5580   6.7175   6.8380   6.9132   6.9925   7.0136   7.0404
     7.0859   7.1590   7.1881   7.2090   7.2584   7.3436   7.4406   7.5442
     7.5866   7.6128

          k = 0.0000-0.2800 0.0214 ( 29026 PWs)   bands (ev):

   -11.6819  -9.9268  -9.7806  -8.7831  -8.7144  -8.6957  -7.8160  -7.8011
    -7.6017  -7.5774  -7.4083  -7.3683  -7.2973  -7.2881  -7.2847  -7.1622
    -7.1185  -7.0869  -7.0123  -6.9946  -6.9672  -6.4810  -6.3534  -6.2635
    -1.8872  -1.7712  -1.3409  -1.0974  -0.6263  -0.6017  -0.5419  -0.4965
    -0.4486  -0.3965  -0.2938  -0.1580  -0.1370  -0.0328   0.0013   0.1353
     0.1814   0.1987   0.4498   0.4871   0.8176   0.8965   0.9730   1.0118
     1.0890   1.1439   1.3815   1.4325   1.4789   1.5177   1.5903   1.6326
     1.6984   1.7408   1.8221   1.8699   1.8971   1.9301   1.9626   1.9894
     2.1642   2.1706   2.2631   2.3428   2.3540   2.4961   2.5703   2.6361
     2.7470   2.8532   2.9128   2.9327   3.0042   3.0564   3.1073   3.1244
     3.1911   3.2053   3.2447   3.3854   3.4135   3.4743   3.5859   3.6479
     3.7797   3.8587   3.8848   3.9958   4.0382   4.0630   4.2608   4.3375
     4.3855   4.4198   4.4803   4.5657   4.5934   4.7127   4.8940   5.1489
     5.1793   5.4645   5.5405   5.6691   5.7367   5.9592   6.1449   6.2542
     6.4463   6.5409   6.7126   6.8464   6.9275   6.9627   7.0118   7.0935
     7.1027   7.1361   7.1719   7.2500   7.2648   7.3228   7.4274   7.4492
     7.4675   7.5623

          k = 0.0000-0.2800-0.2401 ( 29016 PWs)   bands (ev):

   -11.6819  -9.9268  -9.7804  -8.7817  -8.7171  -8.6971  -7.8137  -7.7994
    -7.6008  -7.5769  -7.4139  -7.3646  -7.2949  -7.2895  -7.2847  -7.1517
    -7.1264  -7.0854  -7.0171  -6.9973  -6.9649  -6.4818  -6.3546  -6.2630
    -1.8812  -1.7689  -1.3447  -1.1136  -0.6262  -0.6021  -0.5471  -0.5067
    -0.4608  -0.3988  -0.2980  -0.1575  -0.0955  -0.0311  -0.0022   0.1554
     0.1788   0.2130   0.4491   0.4827   0.8546   0.9015   0.9786   1.0047
     1.0867   1.1416   1.3553   1.4425   1.4801   1.4901   1.5464   1.6288
     1.7167   1.7770   1.7944   1.8601   1.8759   1.9307   1.9690   2.0081
     2.1466   2.1974   2.2382   2.3008   2.3428   2.4538   2.6007   2.6503
     2.8271   2.8710   2.9072   2.9400   3.0321   3.0605   3.0873   3.1276
     3.1942   3.2128   3.2807   3.3563   3.4131   3.4714   3.5914   3.6248
     3.7330   3.8758   3.9238   3.9674   4.0096   4.0760   4.2821   4.3105
     4.3644   4.4106   4.4698   4.5553   4.6035   4.7531   4.8948   5.1505
     5.1796   5.4746   5.5436   5.6675   5.7403   5.9637   6.1329   6.2517
     6.4142   6.5408   6.7173   6.8462   6.9362   6.9578   7.0379   7.1070
     7.1251   7.1598   7.1774   7.2403   7.2699   7.3602   7.3667   7.4498
     7.4634   7.5686

          k = 0.3333-0.0078-0.0351 ( 29007 PWs)   bands (ev):

   -11.6084  -9.8889  -9.7233  -9.1205  -8.6405  -8.1681  -8.0942  -7.8341
    -7.7532  -7.6232  -7.5009  -7.4513  -7.4212  -7.2943  -7.2559  -7.1803
    -7.1688  -7.0748  -7.0448  -6.9679  -6.9255  -6.5156  -6.3306  -5.8851
    -2.2416  -1.4587  -1.2737  -0.9446  -0.4841  -0.4064  -0.3831  -0.3207
    -0.2148  -0.0877  -0.0600   0.0104   0.0244   0.1442   0.3127   0.3430
     0.3819   0.5232   0.6008   0.7873   0.9287   1.0156   1.0809   1.1191
     1.1730   1.2298   1.2564   1.2863   1.3356   1.4398   1.5245   1.5459
     1.6087   1.6192   1.6512   1.6928   1.7370   1.7939   1.8997   1.9418
     1.9544   2.0080   2.0762   2.1132   2.2364   2.2624   2.4584   2.4979
     2.5332   2.6496   2.6983   2.7427   2.7876   2.8992   2.9509   2.9967
     3.0680   3.1023   3.1451   3.2105   3.2796   3.3265   3.4229   3.4381
     3.6658   3.7593   3.8226   3.8765   4.0398   4.1084   4.1407   4.1986
     4.2354   4.3698   4.3936   4.5305   4.5997   4.8090   4.8979   5.0189
     5.2802   5.3997   5.5799   5.6918   5.8799   6.0029   6.0297   6.3853
     6.5079   6.5483   6.6259   6.6819   6.7422   6.8235   6.8801   6.9422
     7.0226   7.0682   7.1048   7.1874   7.2311   7.2578   7.2959   7.3265
     7.3580   7.3959

          k = 0.3333-0.0078-0.2966 ( 29004 PWs)   bands (ev):

   -11.6084  -9.8888  -9.7231  -9.1209  -8.6409  -8.1681  -8.0943  -7.8362
    -7.7523  -7.6230  -7.5010  -7.4539  -7.4180  -7.2908  -7.2513  -7.1817
    -7.1714  -7.0772  -7.0445  -6.9662  -6.9268  -6.5159  -6.3322  -5.8850
    -2.2416  -1.4554  -1.2717  -0.9491  -0.4842  -0.4163  -0.3842  -0.3232
    -0.2352  -0.0740  -0.0425   0.0065   0.0362   0.1414   0.3128   0.3409
     0.3791   0.5322   0.6144   0.7808   0.9394   1.0015   1.0717   1.1458
     1.1853   1.2112   1.2410   1.2799   1.3290   1.4379   1.4854   1.5350
     1.5829   1.6232   1.6620   1.7107   1.7699   1.8151   1.8911   1.9527
     1.9616   1.9878   2.0766   2.1087   2.2426   2.2871   2.4346   2.5088
     2.5619   2.6320   2.6871   2.7310   2.8067   2.8817   2.9649   3.0200
     3.0739   3.1005   3.1488   3.2239   3.2694   3.3100   3.4211   3.4592
     3.6670   3.7449   3.8325   3.8632   4.0289   4.0806   4.1164   4.2009
     4.2386   4.3163   4.3779   4.5785   4.6111   4.8299   4.9013   5.0285
     5.2853   5.3993   5.5929   5.6873   5.8704   6.0009   6.0335   6.3896
     6.4910   6.5632   6.6421   6.6701   6.7070   6.7821   6.8924   6.9396
     7.0265   7.0744   7.0986   7.1901   7.2318   7.2794   7.3106   7.3551
     7.3657   7.3973

          k = 0.3333-0.2879-0.0136 ( 28992 PWs)   bands (ev):

   -11.6084  -9.8835  -9.7273  -9.1201  -8.5152  -8.4844  -7.9150  -7.8704
    -7.6644  -7.6477  -7.4759  -7.4554  -7.3254  -7.3097  -7.2723  -7.2156
    -7.1836  -7.0662  -7.0433  -6.9929  -6.9580  -6.5207  -6.3359  -5.8864
    -2.2411  -1.4523  -1.2738  -0.9497  -0.3524  -0.3119  -0.2637  -0.2252
    -0.1970  -0.1469  -0.0948  -0.0780  -0.0176   0.1331   0.1408   0.1734
     0.3288   0.3899   0.6150   0.7293   0.8111   1.0117   1.0707   1.1152
     1.1503   1.2258   1.3429   1.3762   1.4177   1.5142   1.5443   1.5681
     1.6049   1.6426   1.6841   1.7380   1.7849   1.8591   1.9139   1.9598
     2.0315   2.1147   2.1662   2.2180   2.2938   2.3309   2.4120   2.4875
     2.5523   2.6106   2.6468   2.7215   2.7752   2.8360   2.8813   2.9236
     2.9975   3.0766   3.1239   3.1866   3.3095   3.3925   3.4266   3.5313
     3.6198   3.6656   3.7088   3.7747   3.9399   4.0171   4.1224   4.2715
     4.3155   4.3878   4.4064   4.4923   4.6160   4.6797   4.8139   5.0061
     5.2630   5.3851   5.5793   5.6959   5.8574   5.9822   6.0327   6.3874
     6.5024   6.6009   6.7026   6.7775   6.8242   6.9143   6.9492   6.9911
     7.0642   7.1015   7.1443   7.1778   7.2208   7.2736   7.3051   7.3619
     7.4035   7.4382

          k = 0.3333-0.2879-0.2752 ( 28982 PWs)   bands (ev):

   -11.6084  -9.8835  -9.7271  -9.1204  -8.5153  -8.4853  -7.9153  -7.8712
    -7.6623  -7.6471  -7.4764  -7.4552  -7.3238  -7.3076  -7.2728  -7.2191
    -7.1809  -7.0693  -7.0416  -6.9914  -6.9592  -6.5211  -6.3375  -5.8864
    -2.2411  -1.4493  -1.2718  -0.9547  -0.3514  -0.3268  -0.2862  -0.2299
    -0.1725  -0.1372  -0.0945  -0.0785  -0.0168   0.1139   0.1516   0.1941
     0.3330   0.3924   0.6214   0.7127   0.8101   1.0157   1.0873   1.1033
     1.1598   1.2314   1.3283   1.3739   1.4501   1.4927   1.5084   1.5579
     1.5761   1.6382   1.6946   1.7324   1.7916   1.8789   1.9335   1.9473
     2.0396   2.1296   2.1560   2.2168   2.2897   2.3230   2.4155   2.4947
     2.5870   2.6236   2.6349   2.7154   2.7736   2.8335   2.9097   2.9254
     2.9942   3.0841   3.1280   3.1909   3.3021   3.3873   3.4265   3.5314
     3.6223   3.6562   3.7097   3.7534   3.9389   3.9986   4.1061   4.2197
     4.2823   4.3955   4.4426   4.5245   4.6254   4.6871   4.8085   5.0066
     5.2710   5.3829   5.5950   5.6929   5.8538   5.9774   6.0393   6.3898
     6.5125   6.6216   6.6850   6.7494   6.8390   6.8808   6.9321   7.0005
     7.0632   7.1205   7.1352   7.1700   7.2221   7.2778   7.3080   7.3695
     7.4089   7.4336

     the Fermi energy is     5.7639 ev

!    total energy              =    -844.28518584 Ry
     Harris-Foulkes estimate   =    -844.28518634 Ry
     estimated scf accuracy    <       0.00000061 Ry

     The total energy is the sum of the following terms:

     one-electron contribution =    -390.59705325 Ry
     hartree contribution      =     307.63042855 Ry
     xc contribution           =    -334.53576157 Ry
     ewald contribution        =    -426.77974735 Ry
     smearing contrib. (-TS)   =      -0.00305222 Ry

     convergence has been achieved in  15 iterations

     Forces acting on atoms (cartesian axes, Ry/au):

     atom    1 type  1   force =     0.01191899    0.01114022   -0.02052629
     atom    2 type  1   force =    -0.00171452    0.00587445    0.00712783
     atom    3 type  1   force =     0.01154608   -0.00166266    0.01220690
     atom    4 type  1   force =    -0.00525267   -0.00521437   -0.00433738
     atom    5 type  1   force =    -0.01732476   -0.00294265    0.01730942
     atom    6 type  1   force =    -0.00907381    0.01086882   -0.01444091
     atom    7 type  1   force =    -0.00961697    0.00130350    0.00248836
     atom    8 type  1   force =     0.00237270   -0.00310267   -0.00876146
     atom    9 type  1   force =    -0.06079458   -0.01997792    0.03386087
     atom   10 type  1   force =     0.02789694   -0.00068150    0.03564590
     atom   11 type  1   force =     0.00979600    0.03890736   -0.00447071
     atom   12 type  1   force =     0.01011241    0.00347944    0.04371205
     atom   13 type  2   force =     0.00154932    0.00221355   -0.01218911
     atom   14 type  2   force =     0.00911374   -0.00787980   -0.00949385
     atom   15 type  2   force =     0.00245704   -0.00482719   -0.01880580
     atom   16 type  2   force =    -0.00218843   -0.00364598   -0.00438676
     atom   17 type  2   force =     0.00451682    0.02989754   -0.11524875
     atom   18 type  2   force =     0.15198271   -0.06764970    0.03422298
     atom   19 type  2   force =     0.00096147   -0.00116863    0.00457550
     atom   20 type  2   force =     0.00095299    0.00185483   -0.00437517
     atom   21 type  2   force =     0.01518514   -0.01099054    0.15833419
     atom   22 type  2   force =     0.00432297    0.00062104   -0.00306714
     atom   23 type  2   force =    -0.12192525   -0.07490799   -0.08682271
     atom   24 type  2   force =    -0.04757386   -0.06389992   -0.03464301
     atom   25 type  2   force =     0.01063560   -0.00056534    0.00123507
     atom   26 type  2   force =    -0.00461499   -0.00381024   -0.00285422
     atom   27 type  2   force =     0.00217440   -0.00674028   -0.01562103
     atom   28 type  2   force =     0.00310290   -0.00348168   -0.00624381
     atom   29 type  2   force =     0.00567110    0.00138678    0.01319462
     atom   30 type  2   force =    -0.05293887    0.00313431    0.16695453
     atom   31 type  2   force =     0.06149531   -0.02016693   -0.11426349
     atom   32 type  2   force =     0.01450056    0.06255115    0.00718811
     atom   33 type  2   force =     0.00322765    0.00212481   -0.00821809
     atom   34 type  2   force =    -0.00107393   -0.00456358   -0.01466258
     atom   35 type  2   force =     0.00683043    0.01157414   -0.07363770
     atom   36 type  2   force =    -0.03823064    0.12094764    0.03901365

     Total force =     0.441095     Total SCF correction =     0.001461
 
     init_run     :      4.46s CPU      4.61s WALL (       1 calls)
     electrons    :    116.96s CPU    119.57s WALL (       1 calls)
     forces       :      2.37s CPU      2.43s WALL (       1 calls)

     Called by init_run:
     wfcinit      :      3.06s CPU      3.14s WALL (       1 calls)
     potinit      :      0.40s CPU      0.41s WALL (       1 calls)
     hinit0       :      0.51s CPU      0.52s WALL (       1 calls)

     Called by electrons:
     c_bands      :     96.66s CPU     98.15s WALL (      15 calls)
     sum_band     :     15.36s CPU     16.08s WALL (      15 calls)
     v_of_rho     :      0.72s CPU      0.77s WALL (      16 calls)
     newd         :      3.41s CPU      3.67s WALL (      16 calls)
     mix_rho      :      0.87s CPU      0.97s WALL (      15 calls)

     Called by c_bands:
     init_us_2    :      1.45s CPU      1.48s WALL (     256 calls)
     cegterg      :     90.48s CPU     91.91s WALL (     120 calls)

     Called by sum_band:
     sum_band:bec :      0.13s CPU      0.14s WALL (     120 calls)
     addusdens    :      3.99s CPU      4.43s WALL (      15 calls)

     Called by *egterg:
     h_psi        :     49.04s CPU     50.02s WALL (     492 calls)
     s_psi        :      8.77s CPU      8.81s WALL (     492 calls)
     g_psi        :      0.13s CPU      0.14s WALL (     364 calls)
     cdiaghg      :     20.17s CPU     20.51s WALL (     484 calls)

     Called by h_psi:
     h_psi:pot    :     48.71s CPU     49.68s WALL (     492 calls)
     h_psi:calbec :      9.25s CPU      9.60s WALL (     492 calls)
     vloc_psi     :     30.58s CPU     31.17s WALL (     492 calls)
     add_vuspsi   :      8.87s CPU      8.92s WALL (     492 calls)

     General routines
     calbec       :     13.87s CPU     14.40s WALL (     644 calls)
     fft          :      0.66s CPU      0.72s WALL (     217 calls)
     ffts         :      0.48s CPU      0.57s WALL (     487 calls)
     fftw         :     33.67s CPU     34.31s WALL (   90496 calls)
     interpolate  :      0.07s CPU      0.08s WALL (      16 calls)
 
     Parallel routines
     fft_scatt_xy :      3.02s CPU      3.07s WALL (   91200 calls)
     fft_scatt_yz :     16.17s CPU     16.60s WALL (   91200 calls)
 
     PWSCF        :   2m 4.37s CPU   2m 7.29s WALL

 
   This run was terminated on:  20:56:52  19Nov2021            

=------------------------------------------------------------------------------=
   JOB DONE.
=------------------------------------------------------------------------------=
