
     Program PWSCF v.6.4 starts on 25Dec2021 at  0:11:35 

     This program is part of the open-source Quantum ESPRESSO suite
     for quantum simulation of materials; please cite
         "P. Giannozzi et al., J. Phys.:Condens. Matter 21 395502 (2009);
         "P. Giannozzi et al., J. Phys.:Condens. Matter 29 465901 (2017);
          URL http://www.quantum-espresso.org", 
     in publications or presentations arising from this work. More details at
     http://www.quantum-espresso.org/quote

     Parallel version (MPI), running on    40 processors

     MPI processes distributed on     1 nodes
     R & G space division:  proc/nbgrp/npool/nimage =      40
     Waiting for input...
     Reading input from standard input
Warning: card    &IONS ignored
Warning: card      ION_DYNAMICS = 'BFGS' ignored
Warning: card   / ignored
Warning: card    &CELL ignored
Warning: card      CELL_DYNAMICS = 'BFGS', ignored
Warning: card    / ignored

     Current dimensions of program PWSCF are:
     Max number of different atomic species (ntypx) = 10
     Max number of k-points (npk) =  40000
     Max angular momentum in pseudopotentials (lmaxx) =  3

     Subspace diagonalization in iterative solution of the eigenvalue problem:
     one sub-group per band group will be used
     scalapack distributed-memory algorithm (size of sub-group:  4*  4 procs)

 
     Parallelization info
     --------------------
     sticks:   dense  smooth     PW     G-vecs:    dense   smooth      PW
     Min          91      45     12                15269     5387     774
     Max          92      46     13                15292     5406     795
     Sum        3667    1813    511               611069   215733   31431
 


     bravais-lattice index     =            0
     lattice parameter (alat)  =      12.1536  a.u.
     unit-cell volume          =    5297.5662 (a.u.)^3
     number of atoms/cell      =           36
     number of atomic types    =            2
     number of electrons       =       216.00
     number of Kohn-Sham states=          130
     kinetic-energy cutoff     =      45.0000  Ry
     charge density cutoff     =     360.0000  Ry
     convergence threshold     =      1.0E-06
     mixing beta               =       0.7000
     number of iterations used =            8  local-TF  mixing
     Exchange-correlation      = SLA PW GGX GGC ( 1  4  2  2 0 0)

     celldm(1)=  12.153560  celldm(2)=   0.000000  celldm(3)=   0.000000
     celldm(4)=   0.000000  celldm(5)=   0.000000  celldm(6)=   0.000000

     crystal axes: (cart. coord. in units of alat)
               a(1) = (   1.000000   0.000000   0.000000 )  
               a(2) = (  -0.500000   0.866026   0.000000 )  
               a(3) = (   0.000000   0.000000   3.407495 )  

     reciprocal axes: (cart. coord. in units 2 pi/alat)
               b(1) = (  1.000000  0.577350  0.000000 )  
               b(2) = (  0.000000  1.154700  0.000000 )  
               b(3) = (  0.000000  0.000000  0.293471 )  


     PseudoPot. # 1 for Mo read from file:
     ~/pseudo/Mo.pw91-n-van.UPF
     MD5 check sum: Not computed, couldn't open file
     Pseudo is Ultrasoft + core correction, Zval =  6.0
     Generated by new atomic code, or converted to UPF format
     Using radial grid of  965 points,  3 beta functions with: 
                l(1) =   1
                l(2) =   2
                l(3) =   2
     Q(r) pseudized with  8 coefficients,  rinner =    1.000   1.000   1.000
                                                       1.200   1.200

     PseudoPot. # 2 for S  read from file:
     ~/pseudo/S.pw91-van_ak.UPF
     MD5 check sum: Not computed, couldn't open file
     Pseudo is Ultrasoft, Zval =  6.0
     Generated by new atomic code, or converted to UPF format
     Using radial grid of  811 points,  6 beta functions with: 
                l(1) =   0
                l(2) =   0
                l(3) =   1
                l(4) =   1
                l(5) =   2
                l(6) =   2
     Q(r) pseudized with  8 coefficients,  rinner =    1.100   1.100   1.100
                                                       1.100   1.100

     atomic species   valence    mass     pseudopotential
        Mo             6.00    95.50000     Mo( 1.00)
        S              6.00    32.06500     S ( 1.00)

     No symmetry found



   Cartesian axes

     site n.     atom                  positions (alat units)
         1           Mo  tau(   1) = (   0.3008357   0.6963376   1.6022114  )
         2           Mo  tau(   2) = (   0.5269250  -0.0203029   2.7081726  )
         3           Mo  tau(   3) = (   0.3787582   0.6563228   0.3419906  )
         4           Mo  tau(   4) = (   0.5489617   0.2657190   1.6084914  )
         5           Mo  tau(   5) = (   0.7866190   0.4090385   2.6990845  )
         6           Mo  tau(   6) = (   0.6186147   0.2211563   0.3418881  )
         7           Mo  tau(   7) = (   1.0408774  -0.0184558   2.6994724  )
         8           Mo  tau(   8) = (   0.0325430   0.2631630   1.5911141  )
         9           Mo  tau(   9) = (  -0.2129547   0.7116774   1.6033993  )
        10           Mo  tau(  10) = (   0.2957087   0.4057409   2.7202014  )
        11           Mo  tau(  11) = (   0.1186586   0.2219029   0.3230382  )
        12           Mo  tau(  12) = (  -0.1300081   0.6559499   0.3416755  )
        13           S   tau(  13) = (   0.2884016   0.6994838   2.4781188  )
        14           S   tau(  14) = (   0.2999751   0.6979881   2.9512730  )
        15           S   tau(  15) = (   0.3642273   0.0764100   0.0822477  )
        16           S   tau(  16) = (   0.3788535   0.0677305   0.5667338  )
        17           S   tau(  17) = (   0.5286230   0.5582627   1.3621099  )
        18           S   tau(  18) = (   0.5388793   0.5578492   1.8346677  )
        19           S   tau(  19) = (   0.5336622   0.2627351   2.4763312  )
        20           S   tau(  20) = (   0.5330970   0.2556832   2.9585407  )
        21           S   tau(  21) = (   0.6131691   0.5061657   0.0830827  )
        22           S   tau(  22) = (   0.6209383   0.5071222   0.5892924  )
        23           S   tau(  23) = (   0.7884449   0.1319990   1.3480703  )
        24           S   tau(  24) = (   0.7943127   0.1302345   1.8545994  )
        25           S   tau(  25) = (   0.8869483   0.0716132   0.0833832  )
        26           S   tau(  26) = (   0.8724749   0.0647206   0.5873336  )
        27           S   tau(  27) = (   0.0374579   0.2752608   2.4744485  )
        28           S   tau(  28) = (   0.0439631   0.2607884   2.9663983  )
        29           S   tau(  29) = (  -0.2024257   0.7033428   2.4576664  )
        30           S   tau(  30) = (  -0.2084406   0.6952974   2.9452525  )
        31           S   tau(  31) = (   0.1321880   0.5061109   0.0969060  )
        32           S   tau(  32) = (   0.1353528   0.5106398   0.5734831  )
        33           S   tau(  33) = (   0.2814869   0.1134485   1.3606032  )
        34           S   tau(  34) = (   0.2884627   0.1220566   1.8592566  )
        35           S   tau(  35) = (   0.0429084   0.5642619   1.3482110  )
        36           S   tau(  36) = (   0.0328195   0.5451393   1.8427316  )

     number of k points=     5  Marzari-Vanderbilt smearing, width (Ry)=  0.0200
                       cart. coord. in units 2pi/alat
        k(    1) = (   0.0000000   0.0000000   0.0000000), wk =   0.2222222
        k(    2) = (   0.0000000   0.3849001   0.0000000), wk =   0.4444444
        k(    3) = (   0.3333333   0.5773502   0.0000000), wk =   0.4444444
        k(    4) = (  -0.3333333   0.1924501   0.0000000), wk =   0.4444444
        k(    5) = (   0.3333333   0.1924501   0.0000000), wk =   0.4444444

     Dense  grid:   611069 G-vectors     FFT dimensions: (  75,  75, 256)

     Smooth grid:   215733 G-vectors     FFT dimensions: (  54,  54, 180)

     Estimated max dynamical RAM per process >      97.75 MB

     Estimated total dynamical RAM >       3.82 GB

     Initial potential from superposition of free atoms

     starting charge  215.98107, renormalised to  216.00000
     Starting wfcs are  204 randomized atomic wfcs

     total cpu time spent up to now is        4.8 secs

     Self-consistent Calculation

     iteration #  1     ecut=    45.00 Ry     beta= 0.70
     Davidson diagonalization with overlap
     ethr =  1.00E-02,  avg # of iterations =  2.0

     total cpu time spent up to now is       11.1 secs

     total energy              =    -844.12018499 Ry
     Harris-Foulkes estimate   =    -846.69264529 Ry
     estimated scf accuracy    <       6.56659909 Ry

     iteration #  2     ecut=    45.00 Ry     beta= 0.70
     Davidson diagonalization with overlap
     ethr =  3.04E-03,  avg # of iterations =  2.4

     total cpu time spent up to now is       16.7 secs

     total energy              =    -845.32751006 Ry
     Harris-Foulkes estimate   =    -845.49262336 Ry
     estimated scf accuracy    <       0.85503248 Ry

     iteration #  3     ecut=    45.00 Ry     beta= 0.70
     Davidson diagonalization with overlap
     ethr =  3.96E-04,  avg # of iterations =  2.0

     total cpu time spent up to now is       21.6 secs

     total energy              =    -845.33621430 Ry
     Harris-Foulkes estimate   =    -845.40439758 Ry
     estimated scf accuracy    <       0.19945875 Ry

     iteration #  4     ecut=    45.00 Ry     beta= 0.70
     Davidson diagonalization with overlap
     ethr =  9.23E-05,  avg # of iterations =  4.8

     total cpu time spent up to now is       29.2 secs

     total energy              =    -845.38533891 Ry
     Harris-Foulkes estimate   =    -845.40738561 Ry
     estimated scf accuracy    <       0.09619093 Ry

     iteration #  5     ecut=    45.00 Ry     beta= 0.70
     Davidson diagonalization with overlap
     ethr =  4.45E-05,  avg # of iterations =  6.4

     total cpu time spent up to now is       35.9 secs

     total energy              =    -845.38900826 Ry
     Harris-Foulkes estimate   =    -845.39281794 Ry
     estimated scf accuracy    <       0.01173175 Ry

     iteration #  6     ecut=    45.00 Ry     beta= 0.70
     Davidson diagonalization with overlap
     ethr =  5.43E-06,  avg # of iterations =  7.4

     total cpu time spent up to now is       46.5 secs

     total energy              =    -845.39266330 Ry
     Harris-Foulkes estimate   =    -845.39427279 Ry
     estimated scf accuracy    <       0.00869770 Ry

     iteration #  7     ecut=    45.00 Ry     beta= 0.70
     Davidson diagonalization with overlap
     ethr =  4.03E-06,  avg # of iterations =  1.2

     total cpu time spent up to now is       51.1 secs

     total energy              =    -845.39285270 Ry
     Harris-Foulkes estimate   =    -845.39312786 Ry
     estimated scf accuracy    <       0.00186655 Ry

     iteration #  8     ecut=    45.00 Ry     beta= 0.70
     Davidson diagonalization with overlap
     ethr =  8.64E-07,  avg # of iterations =  3.0

     total cpu time spent up to now is       56.8 secs

     total energy              =    -845.39307524 Ry
     Harris-Foulkes estimate   =    -845.39310178 Ry
     estimated scf accuracy    <       0.00016570 Ry

     iteration #  9     ecut=    45.00 Ry     beta= 0.70
     Davidson diagonalization with overlap
     ethr =  7.67E-08,  avg # of iterations =  2.8

     total cpu time spent up to now is       62.7 secs

     total energy              =    -845.39309009 Ry
     Harris-Foulkes estimate   =    -845.39310648 Ry
     estimated scf accuracy    <       0.00008795 Ry

     iteration # 10     ecut=    45.00 Ry     beta= 0.70
     Davidson diagonalization with overlap
     ethr =  4.07E-08,  avg # of iterations =  3.0

     total cpu time spent up to now is       68.5 secs

     total energy              =    -845.39310296 Ry
     Harris-Foulkes estimate   =    -845.39310518 Ry
     estimated scf accuracy    <       0.00006068 Ry

     iteration # 11     ecut=    45.00 Ry     beta= 0.70
     Davidson diagonalization with overlap
     ethr =  2.81E-08,  avg # of iterations =  2.0

     total cpu time spent up to now is       73.3 secs

     total energy              =    -845.39309153 Ry
     Harris-Foulkes estimate   =    -845.39310642 Ry
     estimated scf accuracy    <       0.00006546 Ry

     iteration # 12     ecut=    45.00 Ry     beta= 0.70
     Davidson diagonalization with overlap
     ethr =  2.81E-08,  avg # of iterations =  1.2

     total cpu time spent up to now is       77.9 secs

     total energy              =    -845.39309365 Ry
     Harris-Foulkes estimate   =    -845.39309621 Ry
     estimated scf accuracy    <       0.00000953 Ry

     iteration # 13     ecut=    45.00 Ry     beta= 0.70
     Davidson diagonalization with overlap
     ethr =  4.41E-09,  avg # of iterations =  3.8

     total cpu time spent up to now is       84.7 secs

     total energy              =    -845.39309601 Ry
     Harris-Foulkes estimate   =    -845.39309663 Ry
     estimated scf accuracy    <       0.00000472 Ry

     iteration # 14     ecut=    45.00 Ry     beta= 0.70
     Davidson diagonalization with overlap
     ethr =  2.19E-09,  avg # of iterations =  1.0

     total cpu time spent up to now is       89.2 secs

     total energy              =    -845.39309558 Ry
     Harris-Foulkes estimate   =    -845.39309618 Ry
     estimated scf accuracy    <       0.00000175 Ry

     iteration # 15     ecut=    45.00 Ry     beta= 0.70
     Davidson diagonalization with overlap
     ethr =  8.10E-10,  avg # of iterations =  3.0

     total cpu time spent up to now is       95.7 secs

     total energy              =    -845.39309572 Ry
     Harris-Foulkes estimate   =    -845.39309638 Ry
     estimated scf accuracy    <       0.00000247 Ry

     iteration # 16     ecut=    45.00 Ry     beta= 0.70
     Davidson diagonalization with overlap
     ethr =  8.10E-10,  avg # of iterations =  2.4

     total cpu time spent up to now is      101.1 secs

     End of self-consistent calculation

          k = 0.0000 0.0000 0.0000 ( 26891 PWs)   bands (ev):

    -8.4939  -8.3714  -8.3334  -7.2441  -7.1866  -7.1292  -6.8383  -6.8052
    -6.7455  -6.7320  -6.7220  -6.5846  -6.5794  -6.5191  -6.4870  -6.4684
    -6.4642  -6.3788  -6.3590  -6.3213  -6.3165  -6.2868  -6.2460  -6.2143
    -0.1614  -0.0928  -0.0808  -0.0678  -0.0319  -0.0290  -0.0089   0.0318
     0.1025   0.1205   0.2027   0.2895   0.8326   0.8655   0.8691   0.9375
     0.9443   0.9560   0.9822   1.0226   1.0334   1.4510   1.4677   1.5373
     1.5730   1.6100   1.6946   1.7321   1.7939   1.8458   2.2927   2.3516
     2.3767   2.4270   2.4547   2.5149   2.5558   2.6664   2.7118   2.8443
     2.8821   3.0073   3.0285   3.1234   3.1294   3.4610   3.5696   3.6211
     3.6325   3.7131   3.7516   3.7938   3.8166   3.8965   3.9586   3.9819
     4.0086   4.0345   4.1256   4.1847   4.3349   4.3835   4.4593   4.5034
     4.5516   4.5899   4.6430   4.6638   4.6740   4.7160   4.7338   4.8842
     4.9632   4.9870   5.0006   5.0287   5.0489   5.0714   5.1264   5.1719
     5.2390   5.5209   5.7795   5.9310   7.4876   7.5170   7.5178   7.5970
     7.6022   7.6174   7.6336   7.6452   7.7120   8.0034   8.0330   8.0723
     8.1096   8.1506   8.1596   8.1678   8.1731   8.1848   8.2128   8.2379
     8.2606   8.3051

          k = 0.0000 0.3849 0.0000 ( 26982 PWs)   bands (ev):

    -8.1285  -8.0160  -7.9712  -7.2866  -7.1958  -7.1499  -7.0604  -7.0014
    -6.9602  -6.8376  -6.7603  -6.6850  -6.6731  -6.6479  -6.6097  -6.5730
    -6.5641  -6.5358  -6.3797  -6.3575  -6.3230  -6.2762  -6.2685  -6.2477
     0.2454   0.3083   0.3355   0.3802   0.4236   0.4451   0.4520   0.4602
     0.5759   0.5921   0.6283   0.6871   0.7410   0.8278   0.8682   0.8822
     0.9161   0.9265   1.4235   1.5434   1.5834   1.6431   1.6676   1.7138
     1.7672   1.8216   1.8660   1.9265   1.9761   1.9993   2.1735   2.3033
     2.3274   2.3599   2.4222   2.4518   2.4705   2.5047   2.5959   2.6395
     2.7234   2.8108   2.8657   2.9064   3.0098   3.1416   3.2235   3.2524
     3.3128   3.3392   3.3508   3.4123   3.4832   3.5829   3.5863   3.6433
     3.7812   3.8468   3.8633   3.9088   3.9323   3.9719   3.9992   4.0472
     4.0802   4.1600   4.2092   4.3286   4.3626   4.3981   4.5422   4.6586
     4.7017   4.7308   4.8199   4.9602   5.0257   5.1730   5.1979   5.2394
     5.2895   5.3661   5.4430   5.5251   7.4766   7.5024   7.5564   7.5934
     7.6247   7.6426   7.6788   7.6915   7.7282   7.7723   7.7851   7.8161
     7.8942   7.9469   7.9806   8.0108   8.0413   8.0753   8.0942   8.1502
     8.1936   8.2243

          k = 0.3333 0.5774 0.0000 ( 27033 PWs)   bands (ev):

    -7.6125  -7.5830  -7.4978  -7.4781  -7.4385  -7.3952  -7.3421  -7.2454
    -7.1906  -6.8461  -6.8030  -6.7693  -6.7329  -6.7162  -6.6995  -6.6563
    -6.5960  -6.5497  -6.5021  -6.3275  -6.3223  -6.2273  -6.1601  -6.1368
     0.2387   0.3764   0.4097   0.5455   0.6374   0.6872   0.7156   0.8008
     0.8687   0.8817   0.9638   0.9780   1.0897   1.1372   1.1894   1.5554
     1.5679   1.5912   1.6275   1.6941   1.7487   1.7930   1.8296   1.8600
     1.8735   1.8979   1.9201   1.9315   1.9747   1.9883   2.0120   2.0502
     2.0708   2.1089   2.1266   2.1449   2.1851   2.1994   2.2437   2.4119
     2.4574   2.4913   2.5084   2.5786   2.6130   2.6344   2.6427   2.7147
     2.7921   2.8379   2.9061   3.4349   3.4711   3.4941   3.5251   3.5731
     3.5936   3.6972   3.7031   3.7255   3.7704   3.8641   3.8923   4.3637
     4.4339   4.4730   4.4990   4.5367   4.5878   4.6504   4.6887   4.7171
     4.7735   4.7920   4.8442   4.8692   4.9194   4.9287   4.9591   4.9845
     5.0805   5.5924   5.6593   5.6618   7.0474   7.1042   7.1804   7.2515
     7.3088   7.3559   7.4133   7.4510   7.5018   7.5484   7.5960   7.7075
     7.8399   7.8539   7.8982   7.9226   7.9331   7.9722   8.0248   8.0427
     8.0693   8.1121

          k =-0.3333 0.1925 0.0000 ( 26982 PWs)   bands (ev):

    -8.1348  -8.0158  -7.9835  -7.2970  -7.1751  -7.1515  -7.0666  -7.0247
    -6.9358  -6.8021  -6.7534  -6.7428  -6.6333  -6.6266  -6.5991  -6.5761
    -6.5101  -6.5016  -6.4855  -6.3597  -6.3499  -6.3049  -6.2652  -6.2232
     0.2370   0.3085   0.3544   0.3865   0.3957   0.4374   0.4412   0.4837
     0.5563   0.5871   0.6532   0.6906   0.7648   0.8065   0.8681   0.9082
     0.9223   1.0237   1.4273   1.5365   1.5882   1.6549   1.6960   1.7044
     1.7881   1.8382   1.8667   1.8954   1.9709   2.0002   2.1052   2.2970
     2.3218   2.3328   2.4291   2.4621   2.4952   2.5503   2.5717   2.6677
     2.7135   2.7692   2.7787   2.9830   3.0131   3.1457   3.2015   3.2194
     3.3027   3.3100   3.3827   3.4365   3.4630   3.5266   3.5533   3.6716
     3.6873   3.8221   3.8516   3.8752   3.9109   3.9680   4.0096   4.0540
     4.0875   4.1870   4.3039   4.3239   4.3644   4.4061   4.5244   4.6283
     4.7137   4.7653   4.9436   4.9765   5.0517   5.1575   5.2274   5.2517
     5.2675   5.3774   5.4670   5.5261   7.4465   7.4876   7.5234   7.5699
     7.6057   7.6331   7.6561   7.6923   7.7260   7.7541   7.7768   7.8294
     7.9040   7.9304   7.9725   8.0096   8.0435   8.0839   8.0917   8.1286
     8.1511   8.1987

          k = 0.3333 0.1925 0.0000 ( 26982 PWs)   bands (ev):

    -8.1313  -8.0235  -7.9780  -7.2766  -7.1810  -7.1178  -7.0701  -7.0090
    -6.9678  -6.8368  -6.7523  -6.7349  -6.7196  -6.6500  -6.5849  -6.5780
    -6.4771  -6.4469  -6.4385  -6.3814  -6.3691  -6.3081  -6.2491  -6.2347
     0.2654   0.3188   0.3454   0.3733   0.4010   0.4274   0.4351   0.4954
     0.5391   0.5798   0.6598   0.7061   0.7390   0.8036   0.8331   0.9162
     0.9437   1.0218   1.4208   1.5354   1.5794   1.6409   1.6810   1.7162
     1.7708   1.8098   1.8466   1.8854   1.9991   2.0213   2.1489   2.2751
     2.3222   2.3820   2.4008   2.4470   2.4682   2.5681   2.5995   2.6731
     2.7187   2.7261   2.8531   2.9458   2.9974   3.0990   3.2270   3.2705
     3.2998   3.3552   3.3837   3.4212   3.4825   3.4964   3.5918   3.6339
     3.7558   3.7909   3.8372   3.8632   3.9310   3.9658   4.0010   4.0928
     4.1177   4.1690   4.2237   4.3469   4.3587   4.4254   4.5495   4.6184
     4.7375   4.7679   4.8551   5.0007   5.0535   5.1166   5.1584   5.3112
     5.3384   5.3707   5.4428   5.4888   7.4354   7.4865   7.5232   7.5508
     7.6095   7.6320   7.6908   7.7177   7.7500   7.7796   7.7931   7.8127
     7.8843   7.9173   7.9504   7.9688   8.0370   8.0504   8.0737   8.1604
     8.1905   8.1947

     the Fermi energy is     5.8159 ev

!    total energy              =    -845.39309597 Ry
     Harris-Foulkes estimate   =    -845.39309603 Ry
     estimated scf accuracy    <       0.00000009 Ry

     The total energy is the sum of the following terms:

     one-electron contribution =    -303.48059209 Ry
     hartree contribution      =     269.62655313 Ry
     xc contribution           =    -334.35317839 Ry
     ewald contribution        =    -477.20622236 Ry
     smearing contrib. (-TS)   =       0.02034375 Ry

     convergence has been achieved in  16 iterations

     Forces acting on atoms (cartesian axes, Ry/au):

     atom    1 type  1   force =    -0.11815959    0.06767491   -0.00001899
     atom    2 type  1   force =     0.09151529   -0.03699122    0.03736890
     atom    3 type  1   force =     0.00311740   -0.01635823   -0.05436672
     atom    4 type  1   force =    -0.06511035   -0.01210681   -0.03477019
     atom    5 type  1   force =     0.00326306    0.00617231    0.10136666
     atom    6 type  1   force =     0.04753477   -0.01156401   -0.07712771
     atom    7 type  1   force =     0.01765532   -0.01109440    0.06838775
     atom    8 type  1   force =     0.04275305    0.03413169    0.04854923
     atom    9 type  1   force =     0.02299717   -0.08131974   -0.00181004
     atom   10 type  1   force =    -0.05589536    0.02673032   -0.00517774
     atom   11 type  1   force =     0.03299407   -0.02858209    0.08236438
     atom   12 type  1   force =     0.00853103   -0.05815597   -0.08382247
     atom   13 type  2   force =    -0.01108467   -0.01321670   -0.04490221
     atom   14 type  2   force =    -0.02335664    0.01939913    0.00356157
     atom   15 type  2   force =     0.02925060   -0.00885592    0.02129261
     atom   16 type  2   force =    -0.04537951    0.04220974    0.06743457
     atom   17 type  2   force =     0.05636956   -0.02208011   -0.03365652
     atom   18 type  2   force =     0.02496074   -0.00592471    0.07071197
     atom   19 type  2   force =    -0.00205418    0.01304854   -0.06898708
     atom   20 type  2   force =     0.03504146    0.01753221    0.00857325
     atom   21 type  2   force =     0.02800061    0.00187858    0.04019967
     atom   22 type  2   force =     0.01369021    0.00033942   -0.00348424
     atom   23 type  2   force =    -0.00996487   -0.03285313    0.00917376
     atom   24 type  2   force =     0.00441260   -0.03115933   -0.01655804
     atom   25 type  2   force =    -0.05899904    0.00495949    0.01531143
     atom   26 type  2   force =     0.00610490    0.05004745   -0.00972720
     atom   27 type  2   force =     0.03071154   -0.00992471   -0.05450714
     atom   28 type  2   force =    -0.01914076    0.00785394   -0.04150683
     atom   29 type  2   force =    -0.03595204   -0.01286914   -0.02342462
     atom   30 type  2   force =    -0.03002172   -0.00567233    0.01486725
     atom   31 type  2   force =    -0.02535865    0.04265302   -0.02222984
     atom   32 type  2   force =    -0.04015562   -0.01798955    0.02985395
     atom   33 type  2   force =     0.03246256    0.04731165   -0.02657906
     atom   34 type  2   force =    -0.00110787    0.01847499   -0.03483160
     atom   35 type  2   force =    -0.00940477   -0.00835824    0.03009036
     atom   36 type  2   force =     0.01977969    0.02465896   -0.01161905

     Total force =     0.402752     Total SCF correction =     0.000830
 
     init_run     :      3.63s CPU      3.89s WALL (       1 calls)
     electrons    :     93.75s CPU     96.32s WALL (       1 calls)
     forces       :      1.92s CPU      2.00s WALL (       1 calls)

     Called by init_run:
     wfcinit      :      2.16s CPU      2.26s WALL (       1 calls)
     potinit      :      0.24s CPU      0.24s WALL (       1 calls)
     hinit0       :      0.64s CPU      0.71s WALL (       1 calls)

     Called by electrons:
     c_bands      :     73.85s CPU     74.82s WALL (      16 calls)
     sum_band     :     14.43s CPU     15.47s WALL (      16 calls)
     v_of_rho     :      1.01s CPU      1.06s WALL (      17 calls)
     newd         :      3.50s CPU      4.04s WALL (      17 calls)
     mix_rho      :      1.02s CPU      1.05s WALL (      16 calls)

     Called by c_bands:
     init_us_2    :      1.84s CPU      1.85s WALL (     170 calls)
     cegterg      :     68.73s CPU     69.67s WALL (      80 calls)

     Called by sum_band:
     sum_band:bec :      0.11s CPU      0.11s WALL (      80 calls)
     addusdens    :      5.43s CPU      6.28s WALL (      16 calls)

     Called by *egterg:
     h_psi        :     35.39s CPU     36.02s WALL (     327 calls)
     s_psi        :      6.99s CPU      7.00s WALL (     327 calls)
     g_psi        :      0.19s CPU      0.19s WALL (     242 calls)
     cdiaghg      :     14.95s CPU     15.26s WALL (     322 calls)

     Called by h_psi:
     h_psi:pot    :     35.00s CPU     35.62s WALL (     327 calls)
     h_psi:calbec :      8.03s CPU      8.23s WALL (     327 calls)
     vloc_psi     :     19.96s CPU     20.36s WALL (     327 calls)
     add_vuspsi   :      7.01s CPU      7.03s WALL (     327 calls)

     General routines
     calbec       :     11.80s CPU     12.09s WALL (     427 calls)
     fft          :      1.32s CPU      1.41s WALL (     230 calls)
     ffts         :      0.43s CPU      0.44s WALL (     502 calls)
     fftw         :     22.36s CPU     22.81s WALL (   63290 calls)
     interpolate  :      0.09s CPU      0.09s WALL (      17 calls)
 
     Parallel routines
     fft_scatt_xy :      2.50s CPU      2.56s WALL (   64022 calls)
     fft_scatt_yz :     10.57s CPU     10.83s WALL (   64022 calls)
 
     PWSCF        :   1m40.08s CPU   1m43.17s WALL

 
   This run was terminated on:   0:13:18  25Dec2021            

=------------------------------------------------------------------------------=
   JOB DONE.
=------------------------------------------------------------------------------=

     Program PWSCF v.6.4 starts on 25Dec2021 at  0:14:43 

     This program is part of the open-source Quantum ESPRESSO suite
     for quantum simulation of materials; please cite
         "P. Giannozzi et al., J. Phys.:Condens. Matter 21 395502 (2009);
         "P. Giannozzi et al., J. Phys.:Condens. Matter 29 465901 (2017);
          URL http://www.quantum-espresso.org", 
     in publications or presentations arising from this work. More details at
     http://www.quantum-espresso.org/quote

     Parallel version (MPI), running on    40 processors

     MPI processes distributed on     1 nodes
     R & G space division:  proc/nbgrp/npool/nimage =      40
     Waiting for input...
     Reading input from standard input
Warning: card    &IONS ignored
Warning: card      ION_DYNAMICS = 'BFGS' ignored
Warning: card   / ignored
Warning: card    &CELL ignored
Warning: card      CELL_DYNAMICS = 'BFGS', ignored
Warning: card    / ignored

     Current dimensions of program PWSCF are:
     Max number of different atomic species (ntypx) = 10
     Max number of k-points (npk) =  40000
     Max angular momentum in pseudopotentials (lmaxx) =  3

     Subspace diagonalization in iterative solution of the eigenvalue problem:
     one sub-group per band group will be used
     scalapack distributed-memory algorithm (size of sub-group:  4*  4 procs)

 
     Parallelization info
     --------------------
     sticks:   dense  smooth     PW     G-vecs:    dense   smooth      PW
     Min          91      45     12                15269     5387     774
     Max          92      46     13                15292     5406     795
     Sum        3667    1813    511               611069   215733   31431
 


     bravais-lattice index     =            0
     lattice parameter (alat)  =      12.1536  a.u.
     unit-cell volume          =    5297.5662 (a.u.)^3
     number of atoms/cell      =           36
     number of atomic types    =            2
     number of electrons       =       216.00
     number of Kohn-Sham states=          130
     kinetic-energy cutoff     =      45.0000  Ry
     charge density cutoff     =     360.0000  Ry
     convergence threshold     =      1.0E-06
     mixing beta               =       0.7000
     number of iterations used =            8  local-TF  mixing
     Exchange-correlation      = SLA PW GGX GGC ( 1  4  2  2 0 0)

     celldm(1)=  12.153560  celldm(2)=   0.000000  celldm(3)=   0.000000
     celldm(4)=   0.000000  celldm(5)=   0.000000  celldm(6)=   0.000000

     crystal axes: (cart. coord. in units of alat)
               a(1) = (   1.000000   0.000000   0.000000 )  
               a(2) = (  -0.500000   0.866026   0.000000 )  
               a(3) = (   0.000000   0.000000   3.407495 )  

     reciprocal axes: (cart. coord. in units 2 pi/alat)
               b(1) = (  1.000000  0.577350  0.000000 )  
               b(2) = (  0.000000  1.154700  0.000000 )  
               b(3) = (  0.000000  0.000000  0.293471 )  


     PseudoPot. # 1 for Mo read from file:
     ~/pseudo/Mo.pw91-n-van.UPF
     MD5 check sum: Not computed, couldn't open file
     Pseudo is Ultrasoft + core correction, Zval =  6.0
     Generated by new atomic code, or converted to UPF format
     Using radial grid of  965 points,  3 beta functions with: 
                l(1) =   1
                l(2) =   2
                l(3) =   2
     Q(r) pseudized with  8 coefficients,  rinner =    1.000   1.000   1.000
                                                       1.200   1.200

     PseudoPot. # 2 for S  read from file:
     ~/pseudo/S.pw91-van_ak.UPF
     MD5 check sum: Not computed, couldn't open file
     Pseudo is Ultrasoft, Zval =  6.0
     Generated by new atomic code, or converted to UPF format
     Using radial grid of  811 points,  6 beta functions with: 
                l(1) =   0
                l(2) =   0
                l(3) =   1
                l(4) =   1
                l(5) =   2
                l(6) =   2
     Q(r) pseudized with  8 coefficients,  rinner =    1.100   1.100   1.100
                                                       1.100   1.100

     atomic species   valence    mass     pseudopotential
        Mo             6.00    95.50000     Mo( 1.00)
        S              6.00    32.06500     S ( 1.00)

     No symmetry found



   Cartesian axes

     site n.     atom                  positions (alat units)
         1           Mo  tau(   1) = (   0.3008357   0.6963376   1.6022114  )
         2           Mo  tau(   2) = (   0.5269250  -0.0203029   2.7081726  )
         3           Mo  tau(   3) = (   0.3787582   0.6563228   0.3419906  )
         4           Mo  tau(   4) = (   0.5489617   0.2657190   1.6084914  )
         5           Mo  tau(   5) = (   0.7866190   0.4090385   2.6990845  )
         6           Mo  tau(   6) = (   0.6186147   0.2211563   0.3418881  )
         7           Mo  tau(   7) = (   1.0408774  -0.0184558   2.6994724  )
         8           Mo  tau(   8) = (   0.0325430   0.2631630   1.5911141  )
         9           Mo  tau(   9) = (  -0.2129547   0.7116774   1.6033993  )
        10           Mo  tau(  10) = (   0.2957087   0.4057409   2.7202014  )
        11           Mo  tau(  11) = (   0.1186586   0.2219029   0.3230382  )
        12           Mo  tau(  12) = (  -0.1300081   0.6559499   0.3416755  )
        13           S   tau(  13) = (   0.2884016   0.6994838   2.4781188  )
        14           S   tau(  14) = (   0.2999751   0.6979881   2.9512730  )
        15           S   tau(  15) = (   0.3642273   0.0764100   0.0822477  )
        16           S   tau(  16) = (   0.3788535   0.0677305   0.5667338  )
        17           S   tau(  17) = (   0.5286230   0.5582627   1.3621099  )
        18           S   tau(  18) = (   0.5388793   0.5578492   1.8346677  )
        19           S   tau(  19) = (   0.5336622   0.2627351   2.4763312  )
        20           S   tau(  20) = (   0.5330970   0.2556832   2.9585407  )
        21           S   tau(  21) = (   0.6131691   0.5061657   0.0830827  )
        22           S   tau(  22) = (   0.6209383   0.5071222   0.5892924  )
        23           S   tau(  23) = (   0.7884449   0.1319990   1.3480703  )
        24           S   tau(  24) = (   0.7943127   0.1302345   1.8545994  )
        25           S   tau(  25) = (   0.8869483   0.0716132   0.0833832  )
        26           S   tau(  26) = (   0.8724749   0.0647206   0.5873336  )
        27           S   tau(  27) = (   0.0374579   0.2752608   2.4744485  )
        28           S   tau(  28) = (   0.0439631   0.2607884   2.9663983  )
        29           S   tau(  29) = (  -0.2024257   0.7033428   2.4576664  )
        30           S   tau(  30) = (  -0.2084406   0.6952974   2.9452525  )
        31           S   tau(  31) = (   0.1321880   0.5061109   0.0969060  )
        32           S   tau(  32) = (   0.1353528   0.5106398   0.5734831  )
        33           S   tau(  33) = (   0.2814869   0.1134485   1.3606032  )
        34           S   tau(  34) = (   0.2884627   0.1220566   1.8592566  )
        35           S   tau(  35) = (   0.0429084   0.5642619   1.3482110  )
        36           S   tau(  36) = (   0.0328195   0.5451393   1.8427316  )

     number of k points=     5  Marzari-Vanderbilt smearing, width (Ry)=  0.0200
                       cart. coord. in units 2pi/alat
        k(    1) = (   0.0000000   0.0000000   0.0000000), wk =   0.2222222
        k(    2) = (   0.0000000   0.3849001   0.0000000), wk =   0.4444444
        k(    3) = (   0.3333333   0.5773502   0.0000000), wk =   0.4444444
        k(    4) = (  -0.3333333   0.1924501   0.0000000), wk =   0.4444444
        k(    5) = (   0.3333333   0.1924501   0.0000000), wk =   0.4444444

     Dense  grid:   611069 G-vectors     FFT dimensions: (  75,  75, 256)

     Smooth grid:   215733 G-vectors     FFT dimensions: (  54,  54, 180)

     Estimated max dynamical RAM per process >      97.75 MB

     Estimated total dynamical RAM >       3.82 GB

     Initial potential from superposition of free atoms

     starting charge  215.98107, renormalised to  216.00000
     Starting wfcs are  204 randomized atomic wfcs

     total cpu time spent up to now is        4.2 secs

     Self-consistent Calculation

     iteration #  1     ecut=    45.00 Ry     beta= 0.70
     Davidson diagonalization with overlap
     ethr =  1.00E-02,  avg # of iterations =  2.0

     total cpu time spent up to now is       12.8 secs

     total energy              =    -844.12018499 Ry
     Harris-Foulkes estimate   =    -846.69264529 Ry
     estimated scf accuracy    <       6.56659909 Ry

     iteration #  2     ecut=    45.00 Ry     beta= 0.70
     Davidson diagonalization with overlap
     ethr =  3.04E-03,  avg # of iterations =  2.4

     total cpu time spent up to now is       18.4 secs

     total energy              =    -845.32751006 Ry
     Harris-Foulkes estimate   =    -845.49262336 Ry
     estimated scf accuracy    <       0.85503248 Ry

     iteration #  3     ecut=    45.00 Ry     beta= 0.70
     Davidson diagonalization with overlap
     ethr =  3.96E-04,  avg # of iterations =  2.0

     total cpu time spent up to now is       23.2 secs

     total energy              =    -845.33621430 Ry
     Harris-Foulkes estimate   =    -845.40439758 Ry
     estimated scf accuracy    <       0.19945875 Ry

     iteration #  4     ecut=    45.00 Ry     beta= 0.70
     Davidson diagonalization with overlap
     ethr =  9.23E-05,  avg # of iterations =  4.8

     total cpu time spent up to now is       30.8 secs

     total energy              =    -845.38533891 Ry
     Harris-Foulkes estimate   =    -845.40738561 Ry
     estimated scf accuracy    <       0.09619093 Ry

     iteration #  5     ecut=    45.00 Ry     beta= 0.70
     Davidson diagonalization with overlap
     ethr =  4.45E-05,  avg # of iterations =  6.4

     total cpu time spent up to now is       37.4 secs

     total energy              =    -845.38900826 Ry
     Harris-Foulkes estimate   =    -845.39281794 Ry
     estimated scf accuracy    <       0.01173175 Ry

     iteration #  6     ecut=    45.00 Ry     beta= 0.70
     Davidson diagonalization with overlap
     ethr =  5.43E-06,  avg # of iterations =  7.4

     total cpu time spent up to now is       47.8 secs

     total energy              =    -845.39266330 Ry
     Harris-Foulkes estimate   =    -845.39427279 Ry
     estimated scf accuracy    <       0.00869770 Ry

     iteration #  7     ecut=    45.00 Ry     beta= 0.70
     Davidson diagonalization with overlap
     ethr =  4.03E-06,  avg # of iterations =  1.2

     total cpu time spent up to now is       52.4 secs

     total energy              =    -845.39285270 Ry
     Harris-Foulkes estimate   =    -845.39312786 Ry
     estimated scf accuracy    <       0.00186655 Ry

     iteration #  8     ecut=    45.00 Ry     beta= 0.70
     Davidson diagonalization with overlap
     ethr =  8.64E-07,  avg # of iterations =  3.0

     total cpu time spent up to now is       58.0 secs

     total energy              =    -845.39307524 Ry
     Harris-Foulkes estimate   =    -845.39310178 Ry
     estimated scf accuracy    <       0.00016570 Ry

     iteration #  9     ecut=    45.00 Ry     beta= 0.70
     Davidson diagonalization with overlap
     ethr =  7.67E-08,  avg # of iterations =  2.8

     total cpu time spent up to now is       63.8 secs

     total energy              =    -845.39309009 Ry
     Harris-Foulkes estimate   =    -845.39310648 Ry
     estimated scf accuracy    <       0.00008795 Ry

     iteration # 10     ecut=    45.00 Ry     beta= 0.70
     Davidson diagonalization with overlap
     ethr =  4.07E-08,  avg # of iterations =  3.0

     total cpu time spent up to now is       69.3 secs

     total energy              =    -845.39310296 Ry
     Harris-Foulkes estimate   =    -845.39310518 Ry
     estimated scf accuracy    <       0.00006068 Ry

     iteration # 11     ecut=    45.00 Ry     beta= 0.70
     Davidson diagonalization with overlap
     ethr =  2.81E-08,  avg # of iterations =  2.0

     total cpu time spent up to now is       74.0 secs

     total energy              =    -845.39309153 Ry
     Harris-Foulkes estimate   =    -845.39310642 Ry
     estimated scf accuracy    <       0.00006546 Ry

     iteration # 12     ecut=    45.00 Ry     beta= 0.70
     Davidson diagonalization with overlap
     ethr =  2.81E-08,  avg # of iterations =  1.2

     total cpu time spent up to now is       78.5 secs

     total energy              =    -845.39309365 Ry
     Harris-Foulkes estimate   =    -845.39309621 Ry
     estimated scf accuracy    <       0.00000953 Ry

     iteration # 13     ecut=    45.00 Ry     beta= 0.70
     Davidson diagonalization with overlap
     ethr =  4.41E-09,  avg # of iterations =  3.8

     total cpu time spent up to now is       85.1 secs

     total energy              =    -845.39309601 Ry
     Harris-Foulkes estimate   =    -845.39309663 Ry
     estimated scf accuracy    <       0.00000472 Ry

     iteration # 14     ecut=    45.00 Ry     beta= 0.70
     Davidson diagonalization with overlap
     ethr =  2.19E-09,  avg # of iterations =  1.0

     total cpu time spent up to now is       89.5 secs

     total energy              =    -845.39309558 Ry
     Harris-Foulkes estimate   =    -845.39309618 Ry
     estimated scf accuracy    <       0.00000175 Ry

     iteration # 15     ecut=    45.00 Ry     beta= 0.70
     Davidson diagonalization with overlap
     ethr =  8.10E-10,  avg # of iterations =  3.0

     total cpu time spent up to now is       95.9 secs

     total energy              =    -845.39309572 Ry
     Harris-Foulkes estimate   =    -845.39309638 Ry
     estimated scf accuracy    <       0.00000247 Ry

     iteration # 16     ecut=    45.00 Ry     beta= 0.70
     Davidson diagonalization with overlap
     ethr =  8.10E-10,  avg # of iterations =  2.4

     total cpu time spent up to now is      101.1 secs

     End of self-consistent calculation

          k = 0.0000 0.0000 0.0000 ( 26891 PWs)   bands (ev):

    -8.4939  -8.3714  -8.3334  -7.2441  -7.1866  -7.1292  -6.8383  -6.8052
    -6.7455  -6.7320  -6.7220  -6.5846  -6.5794  -6.5191  -6.4870  -6.4684
    -6.4642  -6.3788  -6.3590  -6.3213  -6.3165  -6.2868  -6.2460  -6.2143
    -0.1614  -0.0928  -0.0808  -0.0678  -0.0319  -0.0290  -0.0089   0.0318
     0.1025   0.1205   0.2027   0.2895   0.8326   0.8655   0.8691   0.9375
     0.9443   0.9560   0.9822   1.0226   1.0334   1.4510   1.4677   1.5373
     1.5730   1.6100   1.6946   1.7321   1.7939   1.8458   2.2927   2.3516
     2.3767   2.4270   2.4547   2.5149   2.5558   2.6664   2.7118   2.8443
     2.8821   3.0073   3.0285   3.1234   3.1294   3.4610   3.5696   3.6211
     3.6325   3.7131   3.7516   3.7938   3.8166   3.8965   3.9586   3.9819
     4.0086   4.0345   4.1256   4.1847   4.3349   4.3835   4.4593   4.5034
     4.5516   4.5899   4.6430   4.6638   4.6740   4.7160   4.7338   4.8842
     4.9632   4.9870   5.0006   5.0287   5.0489   5.0714   5.1264   5.1719
     5.2390   5.5209   5.7795   5.9310   7.4876   7.5170   7.5178   7.5970
     7.6022   7.6174   7.6336   7.6452   7.7120   8.0034   8.0330   8.0723
     8.1096   8.1506   8.1596   8.1678   8.1731   8.1848   8.2128   8.2379
     8.2606   8.3051

          k = 0.0000 0.3849 0.0000 ( 26982 PWs)   bands (ev):

    -8.1285  -8.0160  -7.9712  -7.2866  -7.1958  -7.1499  -7.0604  -7.0014
    -6.9602  -6.8376  -6.7603  -6.6850  -6.6731  -6.6479  -6.6097  -6.5730
    -6.5641  -6.5358  -6.3797  -6.3575  -6.3230  -6.2762  -6.2685  -6.2477
     0.2454   0.3083   0.3355   0.3802   0.4236   0.4451   0.4520   0.4602
     0.5759   0.5921   0.6283   0.6871   0.7410   0.8278   0.8682   0.8822
     0.9161   0.9265   1.4235   1.5434   1.5834   1.6431   1.6676   1.7138
     1.7672   1.8216   1.8660   1.9265   1.9761   1.9993   2.1735   2.3033
     2.3274   2.3599   2.4222   2.4518   2.4705   2.5047   2.5959   2.6395
     2.7234   2.8108   2.8657   2.9064   3.0098   3.1416   3.2235   3.2524
     3.3128   3.3392   3.3508   3.4123   3.4832   3.5829   3.5863   3.6433
     3.7812   3.8468   3.8633   3.9088   3.9323   3.9719   3.9992   4.0472
     4.0802   4.1600   4.2092   4.3286   4.3626   4.3981   4.5422   4.6586
     4.7017   4.7308   4.8199   4.9602   5.0257   5.1730   5.1979   5.2394
     5.2895   5.3661   5.4430   5.5251   7.4766   7.5024   7.5564   7.5934
     7.6247   7.6426   7.6788   7.6915   7.7282   7.7723   7.7851   7.8161
     7.8942   7.9469   7.9806   8.0108   8.0413   8.0753   8.0942   8.1502
     8.1936   8.2243

          k = 0.3333 0.5774 0.0000 ( 27033 PWs)   bands (ev):

    -7.6125  -7.5830  -7.4978  -7.4781  -7.4385  -7.3952  -7.3421  -7.2454
    -7.1906  -6.8461  -6.8030  -6.7693  -6.7329  -6.7162  -6.6995  -6.6563
    -6.5960  -6.5497  -6.5021  -6.3275  -6.3223  -6.2273  -6.1601  -6.1368
     0.2387   0.3764   0.4097   0.5455   0.6374   0.6872   0.7156   0.8008
     0.8687   0.8817   0.9638   0.9780   1.0897   1.1372   1.1894   1.5554
     1.5679   1.5912   1.6275   1.6941   1.7487   1.7930   1.8296   1.8600
     1.8735   1.8979   1.9201   1.9315   1.9747   1.9883   2.0120   2.0502
     2.0708   2.1089   2.1266   2.1449   2.1851   2.1994   2.2437   2.4119
     2.4574   2.4913   2.5084   2.5786   2.6130   2.6344   2.6427   2.7147
     2.7921   2.8379   2.9061   3.4349   3.4711   3.4941   3.5251   3.5731
     3.5936   3.6972   3.7031   3.7255   3.7704   3.8641   3.8923   4.3637
     4.4339   4.4730   4.4990   4.5367   4.5878   4.6504   4.6887   4.7171
     4.7735   4.7920   4.8442   4.8692   4.9194   4.9287   4.9591   4.9845
     5.0805   5.5924   5.6593   5.6618   7.0474   7.1042   7.1804   7.2515
     7.3088   7.3559   7.4133   7.4510   7.5018   7.5484   7.5960   7.7075
     7.8399   7.8539   7.8982   7.9226   7.9331   7.9722   8.0248   8.0427
     8.0693   8.1121

          k =-0.3333 0.1925 0.0000 ( 26982 PWs)   bands (ev):

    -8.1348  -8.0158  -7.9835  -7.2970  -7.1751  -7.1515  -7.0666  -7.0247
    -6.9358  -6.8021  -6.7534  -6.7428  -6.6333  -6.6266  -6.5991  -6.5761
    -6.5101  -6.5016  -6.4855  -6.3597  -6.3499  -6.3049  -6.2652  -6.2232
     0.2370   0.3085   0.3544   0.3865   0.3957   0.4374   0.4412   0.4837
     0.5563   0.5871   0.6532   0.6906   0.7648   0.8065   0.8681   0.9082
     0.9223   1.0237   1.4273   1.5365   1.5882   1.6549   1.6960   1.7044
     1.7881   1.8382   1.8667   1.8954   1.9709   2.0002   2.1052   2.2970
     2.3218   2.3328   2.4291   2.4621   2.4952   2.5503   2.5717   2.6677
     2.7135   2.7692   2.7787   2.9830   3.0131   3.1457   3.2015   3.2194
     3.3027   3.3100   3.3827   3.4365   3.4630   3.5266   3.5533   3.6716
     3.6873   3.8221   3.8516   3.8752   3.9109   3.9680   4.0096   4.0540
     4.0875   4.1870   4.3039   4.3239   4.3644   4.4061   4.5244   4.6283
     4.7137   4.7653   4.9436   4.9765   5.0517   5.1575   5.2274   5.2517
     5.2675   5.3774   5.4670   5.5261   7.4465   7.4876   7.5234   7.5699
     7.6057   7.6331   7.6561   7.6923   7.7260   7.7541   7.7768   7.8294
     7.9040   7.9304   7.9725   8.0096   8.0435   8.0839   8.0917   8.1286
     8.1511   8.1987

          k = 0.3333 0.1925 0.0000 ( 26982 PWs)   bands (ev):

    -8.1313  -8.0235  -7.9780  -7.2766  -7.1810  -7.1178  -7.0701  -7.0090
    -6.9678  -6.8368  -6.7523  -6.7349  -6.7196  -6.6500  -6.5849  -6.5780
    -6.4771  -6.4469  -6.4385  -6.3814  -6.3691  -6.3081  -6.2491  -6.2347
     0.2654   0.3188   0.3454   0.3733   0.4010   0.4274   0.4351   0.4954
     0.5391   0.5798   0.6598   0.7061   0.7390   0.8036   0.8331   0.9162
     0.9437   1.0218   1.4208   1.5354   1.5794   1.6409   1.6810   1.7162
     1.7708   1.8098   1.8466   1.8854   1.9991   2.0213   2.1489   2.2751
     2.3222   2.3820   2.4008   2.4470   2.4682   2.5681   2.5995   2.6731
     2.7187   2.7261   2.8531   2.9458   2.9974   3.0990   3.2270   3.2705
     3.2998   3.3552   3.3837   3.4212   3.4825   3.4964   3.5918   3.6339
     3.7558   3.7909   3.8372   3.8632   3.9310   3.9658   4.0010   4.0928
     4.1177   4.1690   4.2237   4.3469   4.3587   4.4254   4.5495   4.6184
     4.7375   4.7679   4.8551   5.0007   5.0535   5.1166   5.1584   5.3112
     5.3384   5.3707   5.4428   5.4888   7.4354   7.4865   7.5232   7.5508
     7.6095   7.6320   7.6908   7.7177   7.7500   7.7796   7.7931   7.8127
     7.8843   7.9173   7.9504   7.9688   8.0370   8.0504   8.0737   8.1604
     8.1905   8.1947

     the Fermi energy is     5.8159 ev

!    total energy              =    -845.39309597 Ry
     Harris-Foulkes estimate   =    -845.39309603 Ry
     estimated scf accuracy    <       0.00000009 Ry

     The total energy is the sum of the following terms:

     one-electron contribution =    -303.48059209 Ry
     hartree contribution      =     269.62655313 Ry
     xc contribution           =    -334.35317839 Ry
     ewald contribution        =    -477.20622236 Ry
     smearing contrib. (-TS)   =       0.02034375 Ry

     convergence has been achieved in  16 iterations

     Forces acting on atoms (cartesian axes, Ry/au):

     atom    1 type  1   force =    -0.11815959    0.06767491   -0.00001899
     atom    2 type  1   force =     0.09151529   -0.03699122    0.03736890
     atom    3 type  1   force =     0.00311740   -0.01635823   -0.05436672
     atom    4 type  1   force =    -0.06511035   -0.01210681   -0.03477019
     atom    5 type  1   force =     0.00326306    0.00617231    0.10136666
     atom    6 type  1   force =     0.04753477   -0.01156401   -0.07712771
     atom    7 type  1   force =     0.01765532   -0.01109440    0.06838775
     atom    8 type  1   force =     0.04275305    0.03413169    0.04854923
     atom    9 type  1   force =     0.02299717   -0.08131974   -0.00181004
     atom   10 type  1   force =    -0.05589536    0.02673032   -0.00517774
     atom   11 type  1   force =     0.03299407   -0.02858209    0.08236438
     atom   12 type  1   force =     0.00853103   -0.05815597   -0.08382247
     atom   13 type  2   force =    -0.01108467   -0.01321670   -0.04490221
     atom   14 type  2   force =    -0.02335664    0.01939913    0.00356157
     atom   15 type  2   force =     0.02925060   -0.00885592    0.02129261
     atom   16 type  2   force =    -0.04537951    0.04220974    0.06743457
     atom   17 type  2   force =     0.05636956   -0.02208011   -0.03365652
     atom   18 type  2   force =     0.02496074   -0.00592471    0.07071197
     atom   19 type  2   force =    -0.00205418    0.01304854   -0.06898708
     atom   20 type  2   force =     0.03504146    0.01753221    0.00857325
     atom   21 type  2   force =     0.02800061    0.00187858    0.04019967
     atom   22 type  2   force =     0.01369021    0.00033942   -0.00348424
     atom   23 type  2   force =    -0.00996487   -0.03285313    0.00917376
     atom   24 type  2   force =     0.00441260   -0.03115933   -0.01655804
     atom   25 type  2   force =    -0.05899904    0.00495949    0.01531143
     atom   26 type  2   force =     0.00610490    0.05004745   -0.00972720
     atom   27 type  2   force =     0.03071154   -0.00992471   -0.05450714
     atom   28 type  2   force =    -0.01914076    0.00785394   -0.04150683
     atom   29 type  2   force =    -0.03595204   -0.01286914   -0.02342462
     atom   30 type  2   force =    -0.03002172   -0.00567233    0.01486725
     atom   31 type  2   force =    -0.02535865    0.04265302   -0.02222984
     atom   32 type  2   force =    -0.04015562   -0.01798955    0.02985395
     atom   33 type  2   force =     0.03246256    0.04731165   -0.02657906
     atom   34 type  2   force =    -0.00110787    0.01847499   -0.03483160
     atom   35 type  2   force =    -0.00940477   -0.00835824    0.03009036
     atom   36 type  2   force =     0.01977969    0.02465896   -0.01161905

     Total force =     0.402752     Total SCF correction =     0.000830
 
     init_run     :      3.28s CPU      3.40s WALL (       1 calls)
     electrons    :     94.62s CPU     96.97s WALL (       1 calls)
     forces       :      1.86s CPU      1.91s WALL (       1 calls)

     Called by init_run:
     wfcinit      :      2.12s CPU      2.16s WALL (       1 calls)
     potinit      :      0.24s CPU      0.24s WALL (       1 calls)
     hinit0       :      0.33s CPU      0.34s WALL (       1 calls)

     Called by electrons:
     c_bands      :     75.81s CPU     76.77s WALL (      16 calls)
     sum_band     :     13.70s CPU     14.62s WALL (      16 calls)
     v_of_rho     :      1.01s CPU      1.05s WALL (      17 calls)
     newd         :      3.13s CPU      3.57s WALL (      17 calls)
     mix_rho      :      1.02s CPU      1.04s WALL (      16 calls)

     Called by c_bands:
     init_us_2    :      1.87s CPU      1.89s WALL (     170 calls)
     cegterg      :     70.56s CPU     71.49s WALL (      80 calls)

     Called by sum_band:
     sum_band:bec :      0.13s CPU      0.13s WALL (      80 calls)
     addusdens    :      5.03s CPU      5.73s WALL (      16 calls)

     Called by *egterg:
     h_psi        :     37.80s CPU     38.50s WALL (     327 calls)
     s_psi        :      7.06s CPU      7.06s WALL (     327 calls)
     g_psi        :      0.18s CPU      0.19s WALL (     242 calls)
     cdiaghg      :     14.54s CPU     14.71s WALL (     322 calls)

     Called by h_psi:
     h_psi:pot    :     37.40s CPU     38.09s WALL (     327 calls)
     h_psi:calbec :      7.98s CPU      8.20s WALL (     327 calls)
     vloc_psi     :     22.16s CPU     22.62s WALL (     327 calls)
     add_vuspsi   :      7.25s CPU      7.27s WALL (     327 calls)

     General routines
     calbec       :     11.72s CPU     12.05s WALL (     427 calls)
     fft          :      0.75s CPU      0.80s WALL (     230 calls)
     ffts         :      0.42s CPU      0.43s WALL (     502 calls)
     fftw         :     24.32s CPU     24.79s WALL (   63290 calls)
     interpolate  :      0.09s CPU      0.09s WALL (      17 calls)
 
     Parallel routines
     fft_scatt_xy :      2.61s CPU      2.66s WALL (   64022 calls)
     fft_scatt_yz :     11.70s CPU     11.96s WALL (   64022 calls)
 
     PWSCF        :   1m40.50s CPU   1m43.12s WALL

 
   This run was terminated on:   0:16:26  25Dec2021            

=------------------------------------------------------------------------------=
   JOB DONE.
=------------------------------------------------------------------------------=
