
     Program PWSCF v.6.4 starts on 28Nov2021 at 10:47:44 

     This program is part of the open-source Quantum ESPRESSO suite
     for quantum simulation of materials; please cite
         "P. Giannozzi et al., J. Phys.:Condens. Matter 21 395502 (2009);
         "P. Giannozzi et al., J. Phys.:Condens. Matter 29 465901 (2017);
          URL http://www.quantum-espresso.org", 
     in publications or presentations arising from this work. More details at
     http://www.quantum-espresso.org/quote

     Parallel version (MPI), running on    40 processors

     MPI processes distributed on     1 nodes
     R & G space division:  proc/nbgrp/npool/nimage =      40
     Waiting for input...
     Reading input from standard input
Warning: card    &IONS ignored
Warning: card      ION_DYNAMICS = 'BFGS' ignored
Warning: card   / ignored
Warning: card    &CELL ignored
Warning: card      CELL_DYNAMICS = 'BFGS', ignored
Warning: card    / ignored

     Current dimensions of program PWSCF are:
     Max number of different atomic species (ntypx) = 10
     Max number of k-points (npk) =  40000
     Max angular momentum in pseudopotentials (lmaxx) =  3

     Subspace diagonalization in iterative solution of the eigenvalue problem:
     one sub-group per band group will be used
     scalapack distributed-memory algorithm (size of sub-group:  4*  4 procs)

 
     Parallelization info
     --------------------
     sticks:   dense  smooth     PW     G-vecs:    dense   smooth      PW
     Min         139      69     18                10479     3701     521
     Max         140      70     19                10486     3709     529
     Sum        5587    2779    751               419281   148151   21023
 


     bravais-lattice index     =            0
     lattice parameter (alat)  =      11.6696  a.u.
     unit-cell volume          =    3634.7125 (a.u.)^3
     number of atoms/cell      =           27
     number of atomic types    =            2
     number of electrons       =       162.00
     number of Kohn-Sham states=           97
     kinetic-energy cutoff     =      45.0000  Ry
     charge density cutoff     =     360.0000  Ry
     convergence threshold     =      1.0E-06
     mixing beta               =       0.7000
     number of iterations used =            8  local-TF  mixing
     Exchange-correlation      = SLA PW GGX GGC ( 1  4  2  2 0 0)

     celldm(1)=  11.669601  celldm(2)=   0.000000  celldm(3)=   0.000000
     celldm(4)=   0.000000  celldm(5)=   0.000000  celldm(6)=   0.000000

     crystal axes: (cart. coord. in units of alat)
               a(1) = (   0.999845   0.017525   0.001783 )  
               a(2) = (   0.013019   1.430602  -0.011375 )  
               a(3) = (  -0.030587   0.365253   1.596294 )  

     reciprocal axes: (cart. coord. in units 2 pi/alat)
               b(1) = (  1.000274 -0.008934  0.021211 )  
               b(2) = ( -0.011947  0.697844 -0.159905 )  
               b(3) = ( -0.001203  0.004983  0.625288 )  


     PseudoPot. # 1 for Mo read from file:
     ~/pseudo/Mo.pw91-n-van.UPF
     MD5 check sum: Not computed, couldn't open file
     Pseudo is Ultrasoft + core correction, Zval =  6.0
     Generated by new atomic code, or converted to UPF format
     Using radial grid of  965 points,  3 beta functions with: 
                l(1) =   1
                l(2) =   2
                l(3) =   2
     Q(r) pseudized with  8 coefficients,  rinner =    1.000   1.000   1.000
                                                       1.200   1.200

     PseudoPot. # 2 for S  read from file:
     ~/pseudo/S.pw91-van_ak.UPF
     MD5 check sum: Not computed, couldn't open file
     Pseudo is Ultrasoft, Zval =  6.0
     Generated by new atomic code, or converted to UPF format
     Using radial grid of  811 points,  6 beta functions with: 
                l(1) =   0
                l(2) =   0
                l(3) =   1
                l(4) =   1
                l(5) =   2
                l(6) =   2
     Q(r) pseudized with  8 coefficients,  rinner =    1.100   1.100   1.100
                                                       1.100   1.100

     atomic species   valence    mass     pseudopotential
        Mo             6.00    95.50000     Mo( 1.00)
        S              6.00    32.06500     S ( 1.00)

     No symmetry found



   Cartesian axes

     site n.     atom                  positions (alat units)
         1           Mo  tau(   1) = (   0.9627099   0.9681960   0.7118891  )
         2           Mo  tau(   2) = (  -0.0273289   0.9416461   0.2327413  )
         3           Mo  tau(   3) = (   0.9477196   0.5381378   0.5661388  )
         4           Mo  tau(   4) = (   0.9617324   1.6565004   1.3492503  )
         5           Mo  tau(   5) = (  -0.0242758   0.5567012   1.0162781  )
         6           Mo  tau(   6) = (   0.9495769   1.5620991   0.8835691  )
         7           Mo  tau(   7) = (   0.3683209   0.7625623   1.6427144  )
         8           Mo  tau(   8) = (   0.3731346   1.1267460   1.2612082  )
         9           Mo  tau(   9) = (   0.4573184   1.4498569   0.3503262  )
        10           S   tau(  10) = (   0.6807552   0.4175992   0.8058134  )
        11           S   tau(  11) = (   0.2155349   1.2233373   0.9170087  )
        12           S   tau(  12) = (   0.6266286   1.0568934   1.5371829  )
        13           S   tau(  13) = (   0.2280402   0.2712014   1.0843644  )
        14           S   tau(  14) = (   0.7371613   0.9015918   1.0014648  )
        15           S   tau(  15) = (   0.7134214   1.3030114   0.6595437  )
        16           S   tau(  16) = (   0.7978819   1.2854530   0.1542601  )
        17           S   tau(  17) = (   0.2541617   0.7746346   1.2658910  )
        18           S   tau(  18) = (   0.1082617   0.5615497   0.1955710  )
        19           S   tau(  19) = (   0.2501676   1.0932045   0.4347874  )
        20           S   tau(  20) = (   0.1601802   0.1743600   0.5510709  )
        21           S   tau(  21) = (   0.1389836   1.3109935   1.4830282  )
        22           S   tau(  22) = (   0.6964783   0.8318854   0.4757429  )
        23           S   tau(  23) = (   0.7033890   1.4507450   1.1697937  )
        24           S   tau(  24) = (   0.2275563   0.4060002   1.6273313  )
        25           S   tau(  25) = (   0.2436826   0.6817898   0.7532508  )
        26           S   tau(  26) = (   0.7619783   0.5424386   1.3629721  )
        27           S   tau(  27) = (   0.6543341   0.3303333   0.3109467  )

     number of k points=     8  Marzari-Vanderbilt smearing, width (Ry)=  0.0200
                       cart. coord. in units 2pi/alat
        k(    1) = (   0.0000000   0.0000000   0.0000000), wk =   0.1666667
        k(    2) = (   0.0006013  -0.0024913  -0.3126440), wk =   0.1666667
        k(    3) = (   0.0059733  -0.3489219   0.0799523), wk =   0.1666667
        k(    4) = (   0.0065746  -0.3514132  -0.2326917), wk =   0.1666667
        k(    5) = (   0.3334247  -0.0029780   0.0070702), wk =   0.3333333
        k(    6) = (   0.3340260  -0.0054693  -0.3055738), wk =   0.3333333
        k(    7) = (   0.3393980  -0.3518999   0.0870225), wk =   0.3333333
        k(    8) = (   0.3399993  -0.3543912  -0.2256215), wk =   0.3333333

     Dense  grid:   419281 G-vectors     FFT dimensions: (  72, 108, 120)

     Smooth grid:   148151 G-vectors     FFT dimensions: (  50,  72,  81)

     Estimated max dynamical RAM per process >      63.73 MB

     Estimated total dynamical RAM >       2.49 GB

     Initial potential from superposition of free atoms

     starting charge  161.98581, renormalised to  162.00000
     Starting wfcs are  153 randomized atomic wfcs

     total cpu time spent up to now is        3.5 secs

     Self-consistent Calculation

     iteration #  1     ecut=    45.00 Ry     beta= 0.70
     Davidson diagonalization with overlap
     ethr =  1.00E-02,  avg # of iterations =  2.0

     total cpu time spent up to now is        8.2 secs

     total energy              =    -632.00154511 Ry
     Harris-Foulkes estimate   =    -634.51529149 Ry
     estimated scf accuracy    <       6.50757888 Ry

     iteration #  2     ecut=    45.00 Ry     beta= 0.70
     Davidson diagonalization with overlap
     ethr =  4.02E-03,  avg # of iterations =  2.0

     total cpu time spent up to now is       12.8 secs

     total energy              =    -633.01162959 Ry
     Harris-Foulkes estimate   =    -633.55787589 Ry
     estimated scf accuracy    <       2.53927787 Ry

     iteration #  3     ecut=    45.00 Ry     beta= 0.70
     Davidson diagonalization with overlap
     ethr =  1.57E-03,  avg # of iterations =  1.8

     total cpu time spent up to now is       16.6 secs

     total energy              =    -633.28079000 Ry
     Harris-Foulkes estimate   =    -633.35694001 Ry
     estimated scf accuracy    <       0.56223911 Ry

     iteration #  4     ecut=    45.00 Ry     beta= 0.70
     Davidson diagonalization with overlap
     ethr =  3.47E-04,  avg # of iterations =  2.0

     total cpu time spent up to now is       20.5 secs

     total energy              =    -633.31437449 Ry
     Harris-Foulkes estimate   =    -633.32875737 Ry
     estimated scf accuracy    <       0.06984980 Ry

     iteration #  5     ecut=    45.00 Ry     beta= 0.70
     Davidson diagonalization with overlap
     ethr =  4.31E-05,  avg # of iterations =  7.8

     total cpu time spent up to now is       28.1 secs

     total energy              =    -633.32375730 Ry
     Harris-Foulkes estimate   =    -633.33176646 Ry
     estimated scf accuracy    <       0.02731349 Ry

     iteration #  6     ecut=    45.00 Ry     beta= 0.70
     Davidson diagonalization with overlap
     ethr =  1.69E-05,  avg # of iterations =  2.0

     total cpu time spent up to now is       32.1 secs

     total energy              =    -633.32712304 Ry
     Harris-Foulkes estimate   =    -633.32799890 Ry
     estimated scf accuracy    <       0.00560385 Ry

     iteration #  7     ecut=    45.00 Ry     beta= 0.70
     Davidson diagonalization with overlap
     ethr =  3.46E-06,  avg # of iterations =  3.9

     total cpu time spent up to now is       36.7 secs

     total energy              =    -633.32762214 Ry
     Harris-Foulkes estimate   =    -633.32782797 Ry
     estimated scf accuracy    <       0.00106890 Ry

     iteration #  8     ecut=    45.00 Ry     beta= 0.70
     Davidson diagonalization with overlap
     ethr =  6.60E-07,  avg # of iterations =  3.4

     total cpu time spent up to now is       41.3 secs

     total energy              =    -633.32773489 Ry
     Harris-Foulkes estimate   =    -633.32781110 Ry
     estimated scf accuracy    <       0.00035218 Ry

     iteration #  9     ecut=    45.00 Ry     beta= 0.70
     Davidson diagonalization with overlap
     ethr =  2.17E-07,  avg # of iterations =  2.4

     total cpu time spent up to now is       45.4 secs

     total energy              =    -633.32778070 Ry
     Harris-Foulkes estimate   =    -633.32779311 Ry
     estimated scf accuracy    <       0.00013879 Ry

     iteration # 10     ecut=    45.00 Ry     beta= 0.70
     Davidson diagonalization with overlap
     ethr =  8.57E-08,  avg # of iterations =  1.8

     total cpu time spent up to now is       49.2 secs

     total energy              =    -633.32778631 Ry
     Harris-Foulkes estimate   =    -633.32778981 Ry
     estimated scf accuracy    <       0.00002921 Ry

     iteration # 11     ecut=    45.00 Ry     beta= 0.70
     Davidson diagonalization with overlap
     ethr =  1.80E-08,  avg # of iterations =  5.0

     total cpu time spent up to now is       54.5 secs

     total energy              =    -633.32779088 Ry
     Harris-Foulkes estimate   =    -633.32779190 Ry
     estimated scf accuracy    <       0.00000762 Ry

     iteration # 12     ecut=    45.00 Ry     beta= 0.70
     Davidson diagonalization with overlap
     ethr =  4.70E-09,  avg # of iterations =  2.1

     total cpu time spent up to now is       58.5 secs

     total energy              =    -633.32779158 Ry
     Harris-Foulkes estimate   =    -633.32779185 Ry
     estimated scf accuracy    <       0.00000240 Ry

     iteration # 13     ecut=    45.00 Ry     beta= 0.70
     Davidson diagonalization with overlap
     ethr =  1.48E-09,  avg # of iterations =  2.8

     total cpu time spent up to now is       62.7 secs

     End of self-consistent calculation

          k = 0.0000 0.0000 0.0000 ( 18517 PWs)   bands (ev):

    -7.0018  -6.2053  -6.1698  -5.9611  -5.8794  -5.8129  -5.6940  -5.5710
    -5.5056  -5.4764  -5.3587  -5.3424  -5.2795  -5.1153  -5.0026  -4.9775
    -4.8660  -4.6147   0.9862   1.4747   1.5930   1.8297   1.8732   1.9246
     2.0128   2.0900   2.1682   2.1884   2.2698   2.3610   2.4182   2.5048
     2.6331   2.6643   2.7402   2.7754   2.8512   2.9181   3.0400   3.2296
     3.2999   3.3874   3.4294   3.5062   3.5941   3.6239   3.6652   3.7099
     3.8196   3.9528   4.0277   4.0884   4.1697   4.2017   4.3122   4.4010
     4.4923   4.6308   4.6441   4.7730   4.8511   4.9419   5.0899   5.2645
     5.3345   5.4773   5.6196   5.6528   5.8603   5.9648   6.0504   6.1039
     6.1738   6.2942   6.3936   6.5287   6.5850   6.7921   6.8152   7.1957
     7.2832   7.4434   7.5527   7.6193   7.8204   7.9281   7.9717   8.0868
     8.2144   8.2968   8.3903   8.5416   8.6631   8.7502   8.8185   8.8827
     8.9867

          k = 0.0006-0.0025-0.3126 ( 18526 PWs)   bands (ev):

    -6.8351  -6.6740  -5.9887  -5.9256  -5.8331  -5.7340  -5.6679  -5.5879
    -5.5078  -5.4686  -5.3974  -5.2959  -5.2755  -5.1087  -5.0562  -4.9611
    -4.8751  -4.6331   0.9886   1.3875   1.5668   1.6991   1.8228   1.8626
     1.9899   2.0368   2.0936   2.2484   2.3336   2.4305   2.5014   2.5356
     2.6334   2.6949   2.7879   2.8389   2.9169   3.0460   3.1253   3.1764
     3.2728   3.3399   3.4599   3.5267   3.5455   3.6292   3.6573   3.7743
     3.8744   3.9289   3.9802   4.1435   4.2083   4.2381   4.3227   4.4364
     4.5245   4.6252   4.6518   4.7106   4.8150   5.0331   5.1496   5.1981
     5.2791   5.3558   5.4814   5.6776   5.7271   5.9038   5.9909   6.0333
     6.1231   6.3867   6.4643   6.5021   6.7197   6.8198   6.8787   7.1439
     7.2591   7.4709   7.6674   7.6844   7.7876   7.8643   8.0091   8.0764
     8.2006   8.2564   8.3805   8.5272   8.6900   8.7470   8.8626   8.8881
     8.9748

          k = 0.0060-0.3489 0.0800 ( 18564 PWs)   bands (ev):

    -6.7824  -6.5611  -6.1825  -6.0336  -5.9039  -5.7641  -5.6465  -5.6092
    -5.5141  -5.4313  -5.3640  -5.3059  -5.2178  -5.0614  -5.0106  -4.9696
    -4.8211  -4.6149   1.2728   1.3520   1.4866   1.7307   1.7953   1.8844
     1.9380   2.0036   2.0974   2.1320   2.2657   2.3664   2.4029   2.5212
     2.6102   2.6694   2.7886   2.8827   2.8927   2.9592   2.9708   3.0793
     3.1583   3.2771   3.2964   3.4899   3.5797   3.7170   3.7535   3.7879
     3.9295   3.9931   4.0349   4.1315   4.1798   4.2779   4.4504   4.5701
     4.6056   4.7038   4.7968   4.9010   5.0226   5.1011   5.1920   5.2489
     5.3858   5.4394   5.5579   5.6562   5.6866   5.8311   5.9045   6.0543
     6.1378   6.1797   6.2931   6.5804   6.6475   6.7759   6.9066   7.0863
     7.1659   7.3602   7.4929   7.5012   7.7484   7.8406   7.9621   8.1041
     8.2059   8.3278   8.4232   8.5674   8.7091   8.8063   8.8253   8.8747
     8.9429

          k = 0.0066-0.3514-0.2327 ( 18522 PWs)   bands (ev):

    -6.7161  -6.4989  -6.3176  -6.2464  -5.7537  -5.7012  -5.6249  -5.5699
    -5.5514  -5.4817  -5.3468  -5.2818  -5.2572  -5.0715  -4.9881  -4.9526
    -4.7990  -4.6148   1.2849   1.3131   1.3905   1.5613   1.6992   1.7268
     1.9143   2.0027   2.0341   2.0841   2.2841   2.3377   2.4121   2.4553
     2.5765   2.8000   2.8285   2.9559   3.0852   3.1372   3.2840   3.3205
     3.3987   3.4480   3.4988   3.5576   3.5862   3.6361   3.7648   3.8387
     3.8762   4.0298   4.0554   4.1489   4.2154   4.2439   4.3011   4.3546
     4.4558   4.4959   4.6202   4.7348   4.8880   4.9597   5.0749   5.1945
     5.2644   5.3677   5.5599   5.6478   5.7601   5.8585   5.9848   6.0518
     6.2318   6.2805   6.4855   6.6071   6.6751   6.7361   6.9520   7.0787
     7.2875   7.3875   7.4574   7.6623   7.6930   7.7770   7.9084   8.0915
     8.1685   8.2932   8.4214   8.5097   8.5575   8.7414   8.8430   8.8705
     9.0649

          k = 0.3334-0.0030 0.0071 ( 18507 PWs)   bands (ev):

    -6.7755  -6.2387  -6.1016  -5.9029  -5.8888  -5.8348  -5.7624  -5.6609
    -5.6157  -5.5172  -5.4329  -5.3113  -5.2648  -5.1993  -5.0335  -5.0009
    -4.8012  -4.6214   1.3676   1.4801   1.5500   1.6522   1.7770   1.8085
     1.9287   1.9736   2.0824   2.1858   2.2263   2.2927   2.4084   2.4802
     2.5689   2.6769   2.7672   2.9058   2.9993   3.1219   3.2263   3.2834
     3.3190   3.4602   3.4925   3.5624   3.6723   3.7362   3.7988   3.8589
     3.8889   4.0136   4.0697   4.1505   4.2171   4.2613   4.3810   4.4473
     4.5248   4.5623   4.6707   4.7577   4.8202   4.9171   5.0126   5.1525
     5.2633   5.3338   5.4672   5.6319   5.7219   5.7975   5.9043   6.0531
     6.1809   6.2181   6.4092   6.5289   6.6114   6.8422   6.9605   7.0996
     7.1818   7.3403   7.4627   7.5841   7.7437   7.8440   7.9429   8.1053
     8.1752   8.2021   8.2684   8.4055   8.5846   8.8239   8.8659   8.9394
     9.0326

          k = 0.3340-0.0055-0.3056 ( 18536 PWs)   bands (ev):

    -6.6410  -6.4984  -6.0947  -5.9611  -5.8648  -5.7535  -5.6951  -5.6851
    -5.5573  -5.5000  -5.4284  -5.3423  -5.2849  -5.1615  -5.0258  -4.9555
    -4.8595  -4.6536   1.2787   1.4781   1.5729   1.6751   1.7228   1.8071
     1.9722   2.0381   2.0904   2.1491   2.2416   2.3121   2.4167   2.5049
     2.5719   2.7278   2.8216   2.8675   2.9883   3.0961   3.1431   3.2669
     3.2839   3.3792   3.4730   3.5566   3.5943   3.7019   3.7283   3.8810
     3.9619   4.0104   4.0644   4.1470   4.2371   4.3168   4.4159   4.5181
     4.5695   4.6551   4.7400   4.8353   4.9168   4.9402   5.0588   5.1796
     5.2520   5.4017   5.4192   5.5594   5.6006   5.7227   5.9528   6.0717
     6.1428   6.1785   6.3106   6.4921   6.6581   6.8365   6.9079   7.0312
     7.1564   7.3987   7.5697   7.6124   7.7480   7.8275   7.8766   8.0098
     8.1017   8.2459   8.3938   8.4550   8.6735   8.7874   8.8655   8.9360
     9.0507

          k = 0.3394-0.3519 0.0870 ( 18557 PWs)   bands (ev):

    -6.5860  -6.4118  -6.1308  -6.0656  -5.9267  -5.8336  -5.7426  -5.6349
    -5.5813  -5.4618  -5.4249  -5.3640  -5.2439  -5.1422  -5.0268  -4.9271
    -4.8270  -4.6132   1.3425   1.4318   1.5349   1.6101   1.7529   1.8071
     1.9638   2.0203   2.1517   2.2248   2.2915   2.3820   2.4479   2.5562
     2.6311   2.6939   2.8343   2.8960   2.9487   3.0372   3.1294   3.1826
     3.2770   3.3155   3.4103   3.4934   3.5285   3.6290   3.7190   3.7761
     3.8906   4.0119   4.0530   4.1381   4.1670   4.2691   4.3040   4.4596
     4.5404   4.6734   4.7244   4.8359   4.9983   5.0852   5.1796   5.2399
     5.3501   5.4098   5.5447   5.6326   5.7172   5.7611   5.8864   5.9474
     6.0829   6.2129   6.4472   6.5143   6.6294   6.8543   6.9440   7.1018
     7.2042   7.3465   7.4962   7.6291   7.7165   7.8046   7.9423   8.0502
     8.1530   8.2442   8.2968   8.5915   8.6285   8.7571   8.9027   8.9415
     9.0245

          k = 0.3400-0.3544-0.2256 ( 18515 PWs)   bands (ev):

    -6.5709  -6.3345  -6.1965  -6.1412  -5.9325  -5.8148  -5.7504  -5.6669
    -5.5618  -5.4850  -5.3826  -5.2951  -5.2628  -5.1329  -5.0334  -4.9669
    -4.8139  -4.5933   1.3800   1.4138   1.5232   1.5997   1.7586   1.7974
     1.8993   1.9942   2.0959   2.1544   2.2179   2.3430   2.4407   2.5479
     2.6758   2.7273   2.7915   2.8811   2.9370   3.1159   3.1350   3.2075
     3.3275   3.4000   3.4621   3.5742   3.6417   3.6802   3.7413   3.8465
     3.9078   3.9799   4.0698   4.1512   4.2450   4.3251   4.3719   4.4367
     4.5330   4.6005   4.7295   4.7913   4.8399   4.9438   5.1053   5.2266
     5.3208   5.4158   5.5297   5.5791   5.6982   5.8077   5.9770   6.0116
     6.1050   6.1897   6.4524   6.5186   6.6820   6.8214   6.9075   7.0637
     7.1894   7.3347   7.4399   7.6559   7.7452   7.8162   7.8836   8.0138
     8.1178   8.2790   8.3898   8.4964   8.6828   8.7495   8.8216   8.9180
     9.0219

     the Fermi energy is     7.2887 ev

!    total energy              =    -633.32779161 Ry
     Harris-Foulkes estimate   =    -633.32779187 Ry
     estimated scf accuracy    <       0.00000040 Ry

     The total energy is the sum of the following terms:

     one-electron contribution =      51.55253928 Ry
     hartree contribution      =      69.69528120 Ry
     xc contribution           =    -249.90357453 Ry
     ewald contribution        =    -504.67263382 Ry
     smearing contrib. (-TS)   =       0.00059627 Ry

     convergence has been achieved in  13 iterations

     Forces acting on atoms (cartesian axes, Ry/au):

     atom    1 type  1   force =     0.02200339    0.00484026   -0.00116433
     atom    2 type  1   force =     0.01030085   -0.01751420   -0.00074583
     atom    3 type  1   force =    -0.00611803   -0.00333064   -0.04772643
     atom    4 type  1   force =    -0.00104919    0.02566779   -0.01156140
     atom    5 type  1   force =    -0.01939973    0.01718582    0.01332527
     atom    6 type  1   force =    -0.01597587    0.00572646    0.00928836
     atom    7 type  1   force =     0.00982039    0.00115625   -0.02825415
     atom    8 type  1   force =     0.01184489   -0.00374840    0.00497866
     atom    9 type  1   force =    -0.01406924   -0.01741646    0.00671412
     atom   10 type  2   force =    -0.00491023   -0.01574238    0.02884935
     atom   11 type  2   force =    -0.01247553   -0.01268196    0.02692557
     atom   12 type  2   force =    -0.00368281   -0.00368753    0.00521738
     atom   13 type  2   force =     0.00516209   -0.00161973    0.03345302
     atom   14 type  2   force =    -0.00281897    0.01047141    0.01005596
     atom   15 type  2   force =     0.00192119    0.03433128   -0.00892684
     atom   16 type  2   force =    -0.00057668   -0.03551685   -0.02535761
     atom   17 type  2   force =    -0.00797583    0.00299929   -0.00821195
     atom   18 type  2   force =     0.01096292    0.00268793    0.01573536
     atom   19 type  2   force =    -0.01001714   -0.00659958   -0.01713298
     atom   20 type  2   force =    -0.00190051    0.00224012    0.02530712
     atom   21 type  2   force =     0.00851025    0.00930217   -0.01464980
     atom   22 type  2   force =    -0.00667239   -0.01365892   -0.01385352
     atom   23 type  2   force =    -0.00308519   -0.01306027   -0.01435690
     atom   24 type  2   force =     0.01228295   -0.00636309   -0.00898446
     atom   25 type  2   force =    -0.00820511    0.00558828    0.01068937
     atom   26 type  2   force =     0.00201732    0.01520818   -0.01703598
     atom   27 type  2   force =     0.02410621    0.01353477    0.02742263

     Total force =     0.137595     Total SCF correction =     0.001400
 
     init_run     :      2.71s CPU      2.80s WALL (       1 calls)
     electrons    :     58.26s CPU     59.17s WALL (       1 calls)
     forces       :      1.60s CPU      1.62s WALL (       1 calls)

     Called by init_run:
     wfcinit      :      1.68s CPU      1.73s WALL (       1 calls)
     potinit      :      0.27s CPU      0.28s WALL (       1 calls)
     hinit0       :      0.39s CPU      0.40s WALL (       1 calls)

     Called by electrons:
     c_bands      :     46.25s CPU     46.91s WALL (      13 calls)
     sum_band     :      9.25s CPU      9.44s WALL (      13 calls)
     v_of_rho     :      0.46s CPU      0.50s WALL (      14 calls)
     newd         :      2.01s CPU      2.05s WALL (      14 calls)
     mix_rho      :      0.39s CPU      0.39s WALL (      13 calls)

     Called by c_bands:
     init_us_2    :      1.19s CPU      1.21s WALL (     224 calls)
     cegterg      :     42.87s CPU     43.50s WALL (     104 calls)

     Called by sum_band:
     sum_band:bec :      0.14s CPU      0.14s WALL (     104 calls)
     addusdens    :      3.28s CPU      3.34s WALL (      13 calls)

     Called by *egterg:
     h_psi        :     23.21s CPU     23.67s WALL (     422 calls)
     s_psi        :      4.10s CPU      4.10s WALL (     422 calls)
     g_psi        :      0.07s CPU      0.07s WALL (     310 calls)
     cdiaghg      :     10.42s CPU     10.57s WALL (     414 calls)

     Called by h_psi:
     h_psi:pot    :     23.04s CPU     23.51s WALL (     422 calls)
     h_psi:calbec :      4.96s CPU      5.05s WALL (     422 calls)
     vloc_psi     :     13.82s CPU     14.17s WALL (     422 calls)
     add_vuspsi   :      4.26s CPU      4.27s WALL (     422 calls)

     General routines
     calbec       :      7.48s CPU      7.62s WALL (     558 calls)
     fft          :      0.41s CPU      0.45s WALL (     191 calls)
     ffts         :      0.20s CPU      0.20s WALL (     283 calls)
     fftw         :     15.55s CPU     15.95s WALL (   58670 calls)
     interpolate  :      0.05s CPU      0.05s WALL (      14 calls)
 
     Parallel routines
     fft_scatt_xy :      1.72s CPU      1.77s WALL (   59144 calls)
     fft_scatt_yz :      7.48s CPU      7.70s WALL (   59144 calls)
 
     PWSCF        :   1m 3.26s CPU   1m 4.37s WALL

 
   This run was terminated on:  10:48:49  28Nov2021            

=------------------------------------------------------------------------------=
   JOB DONE.
=------------------------------------------------------------------------------=
