
     Program PWSCF v.6.4 starts on 28Nov2021 at 10:28:28 

     This program is part of the open-source Quantum ESPRESSO suite
     for quantum simulation of materials; please cite
         "P. Giannozzi et al., J. Phys.:Condens. Matter 21 395502 (2009);
         "P. Giannozzi et al., J. Phys.:Condens. Matter 29 465901 (2017);
          URL http://www.quantum-espresso.org", 
     in publications or presentations arising from this work. More details at
     http://www.quantum-espresso.org/quote

     Parallel version (MPI), running on    40 processors

     MPI processes distributed on     1 nodes
     R & G space division:  proc/nbgrp/npool/nimage =      40
     Waiting for input...
     Reading input from standard input
Warning: card    &IONS ignored
Warning: card      ION_DYNAMICS = 'BFGS' ignored
Warning: card   / ignored
Warning: card    &CELL ignored
Warning: card      CELL_DYNAMICS = 'BFGS', ignored
Warning: card    / ignored

     Current dimensions of program PWSCF are:
     Max number of different atomic species (ntypx) = 10
     Max number of k-points (npk) =  40000
     Max angular momentum in pseudopotentials (lmaxx) =  3

     Subspace diagonalization in iterative solution of the eigenvalue problem:
     one sub-group per band group will be used
     scalapack distributed-memory algorithm (size of sub-group:  4*  4 procs)

 
     Parallelization info
     --------------------
     sticks:   dense  smooth     PW     G-vecs:    dense   smooth      PW
     Min         127      63     17                 9567     3380     482
     Max         128      64     18                 9572     3387     485
     Sum        5119    2559    695               382839   135385   19341
 


     bravais-lattice index     =            0
     lattice parameter (alat)  =      10.6208  a.u.
     unit-cell volume          =    3319.6614 (a.u.)^3
     number of atoms/cell      =           27
     number of atomic types    =            2
     number of electrons       =       162.00
     number of Kohn-Sham states=           97
     kinetic-energy cutoff     =      45.0000  Ry
     charge density cutoff     =     360.0000  Ry
     convergence threshold     =      1.0E-06
     mixing beta               =       0.7000
     number of iterations used =            8  local-TF  mixing
     Exchange-correlation      = SLA PW GGX GGC ( 1  4  2  2 0 0)

     celldm(1)=  10.620811  celldm(2)=   0.000000  celldm(3)=   0.000000
     celldm(4)=   0.000000  celldm(5)=   0.000000  celldm(6)=   0.000000

     crystal axes: (cart. coord. in units of alat)
               a(1) = (   0.999853   0.013000   0.011199 )  
               a(2) = (   0.003362   1.583433  -0.005081 )  
               a(3) = (  -0.017084   0.413921   1.748707 )  

     reciprocal axes: (cart. coord. in units 2 pi/alat)
               b(1) = (  1.000059 -0.002090  0.010265 )  
               b(2) = ( -0.006531  0.631073 -0.149440 )  
               b(3) = ( -0.006423  0.001847  0.571351 )  


     PseudoPot. # 1 for Mo read from file:
     ~/pseudo/Mo.pw91-n-van.UPF
     MD5 check sum: Not computed, couldn't open file
     Pseudo is Ultrasoft + core correction, Zval =  6.0
     Generated by new atomic code, or converted to UPF format
     Using radial grid of  965 points,  3 beta functions with: 
                l(1) =   1
                l(2) =   2
                l(3) =   2
     Q(r) pseudized with  8 coefficients,  rinner =    1.000   1.000   1.000
                                                       1.200   1.200

     PseudoPot. # 2 for S  read from file:
     ~/pseudo/S.pw91-van_ak.UPF
     MD5 check sum: Not computed, couldn't open file
     Pseudo is Ultrasoft, Zval =  6.0
     Generated by new atomic code, or converted to UPF format
     Using radial grid of  811 points,  6 beta functions with: 
                l(1) =   0
                l(2) =   0
                l(3) =   1
                l(4) =   1
                l(5) =   2
                l(6) =   2
     Q(r) pseudized with  8 coefficients,  rinner =    1.100   1.100   1.100
                                                       1.100   1.100

     atomic species   valence    mass     pseudopotential
        Mo             6.00    95.50000     Mo( 1.00)
        S              6.00    32.06500     S ( 1.00)

     No symmetry found



   Cartesian axes

     site n.     atom                  positions (alat units)
         1           Mo  tau(   1) = (  -0.0252987   1.0881449   0.7640659  )
         2           Mo  tau(   2) = (   0.9816876   1.0136303   0.2360198  )
         3           Mo  tau(   3) = (   0.9701587   0.6109524   0.6215339  )
         4           Mo  tau(   4) = (   0.9797433   1.7962526   1.5597183  )
         5           Mo  tau(   5) = (  -0.0194702   0.6597389   1.1139579  )
         6           Mo  tau(   6) = (  -0.0116636   1.7259268   0.9992233  )
         7           Mo  tau(   7) = (   0.4877597   0.8144056   1.7346156  )
         8           Mo  tau(   8) = (   0.4783366   1.2199631   1.3864803  )
         9           Mo  tau(   9) = (   0.4847966   1.5924010   0.3765934  )
        10           S   tau(  10) = (   0.6857389   0.4548154   0.9112550  )
        11           S   tau(  11) = (   0.2421113   1.3606354   1.0366722  )
        12           S   tau(  12) = (   0.7438120   1.1586818   1.7045886  )
        13           S   tau(  13) = (   0.2514544   0.3514505   1.2472401  )
        14           S   tau(  14) = (   0.7314024   1.0309859   1.1142620  )
        15           S   tau(  15) = (   0.7213861   1.4662713   0.7293735  )
        16           S   tau(  16) = (   0.7247306   1.3413815   0.1375338  )
        17           S   tau(  17) = (   0.2028571   0.9112524   1.4202515  )
        18           S   tau(  18) = (   0.2330536   0.6522560   0.2638591  )
        19           S   tau(  19) = (   0.2169419   1.2589734   0.4638539  )
        20           S   tau(  20) = (   0.1789021   0.2101047   0.6260642  )
        21           S   tau(  21) = (   0.2563384   1.4886486   1.6398520  )
        22           S   tau(  22) = (   0.6845912   0.9059526   0.5336474  )
        23           S   tau(  23) = (   0.7317643   1.5704762   1.3065960  )
        24           S   tau(  24) = (   0.2203412   0.0735975   0.0530592  )
        25           S   tau(  25) = (   0.2766670   0.7921618   0.8478653  )
        26           S   tau(  26) = (   0.7301559   0.5809511   1.4854208  )
        27           S   tau(  27) = (   0.7062087   0.3552118   0.3595455  )

     number of k points=     8  Marzari-Vanderbilt smearing, width (Ry)=  0.0200
                       cart. coord. in units 2pi/alat
        k(    1) = (   0.0000000   0.0000000   0.0000000), wk =   0.1666667
        k(    2) = (   0.0032117  -0.0009235  -0.2856756), wk =   0.1666667
        k(    3) = (   0.0032657  -0.3155367   0.0747198), wk =   0.1666667
        k(    4) = (   0.0064774  -0.3164602  -0.2109557), wk =   0.1666667
        k(    5) = (   0.3333531  -0.0006968   0.0034217), wk =   0.3333333
        k(    6) = (   0.3365649  -0.0016203  -0.2822539), wk =   0.3333333
        k(    7) = (   0.3366188  -0.3162335   0.0781415), wk =   0.3333333
        k(    8) = (   0.3398305  -0.3171570  -0.2075341), wk =   0.3333333

     Dense  grid:   382839 G-vectors     FFT dimensions: (  72, 108, 120)

     Smooth grid:   135385 G-vectors     FFT dimensions: (  45,  72,  81)

     Estimated max dynamical RAM per process >      58.34 MB

     Estimated total dynamical RAM >       2.28 GB

     Initial potential from superposition of free atoms

     starting charge  161.98581, renormalised to  162.00000
     Starting wfcs are  153 randomized atomic wfcs

     total cpu time spent up to now is        3.2 secs

     Self-consistent Calculation

     iteration #  1     ecut=    45.00 Ry     beta= 0.70
     Davidson diagonalization with overlap
     ethr =  1.00E-02,  avg # of iterations =  2.0

     total cpu time spent up to now is        7.3 secs

     total energy              =    -632.26422611 Ry
     Harris-Foulkes estimate   =    -634.60162526 Ry
     estimated scf accuracy    <       5.89145349 Ry

     iteration #  2     ecut=    45.00 Ry     beta= 0.70
     Davidson diagonalization with overlap
     ethr =  3.64E-03,  avg # of iterations =  2.0

     total cpu time spent up to now is       11.3 secs

     total energy              =    -633.27570029 Ry
     Harris-Foulkes estimate   =    -633.69529798 Ry
     estimated scf accuracy    <       1.79547651 Ry

     iteration #  3     ecut=    45.00 Ry     beta= 0.70
     Davidson diagonalization with overlap
     ethr =  1.11E-03,  avg # of iterations =  1.6

     total cpu time spent up to now is       14.5 secs

     total energy              =    -633.47854152 Ry
     Harris-Foulkes estimate   =    -633.51337034 Ry
     estimated scf accuracy    <       0.22803508 Ry

     iteration #  4     ecut=    45.00 Ry     beta= 0.70
     Davidson diagonalization with overlap
     ethr =  1.41E-04,  avg # of iterations =  2.6

     total cpu time spent up to now is       18.3 secs

     total energy              =    -633.50354322 Ry
     Harris-Foulkes estimate   =    -633.51498090 Ry
     estimated scf accuracy    <       0.03738270 Ry

     iteration #  5     ecut=    45.00 Ry     beta= 0.70
     Davidson diagonalization with overlap
     ethr =  2.31E-05,  avg # of iterations =  9.6

     total cpu time spent up to now is       25.2 secs

     total energy              =    -633.50885623 Ry
     Harris-Foulkes estimate   =    -633.51162793 Ry
     estimated scf accuracy    <       0.01681799 Ry

     iteration #  6     ecut=    45.00 Ry     beta= 0.70
     Davidson diagonalization with overlap
     ethr =  1.04E-05,  avg # of iterations =  3.6

     total cpu time spent up to now is       29.0 secs

     total energy              =    -633.50998109 Ry
     Harris-Foulkes estimate   =    -633.51037654 Ry
     estimated scf accuracy    <       0.00245767 Ry

     iteration #  7     ecut=    45.00 Ry     beta= 0.70
     Davidson diagonalization with overlap
     ethr =  1.52E-06,  avg # of iterations =  8.8

     total cpu time spent up to now is       35.0 secs

     total energy              =    -633.51027292 Ry
     Harris-Foulkes estimate   =    -633.51033638 Ry
     estimated scf accuracy    <       0.00036516 Ry

     iteration #  8     ecut=    45.00 Ry     beta= 0.70
     Davidson diagonalization with overlap
     ethr =  2.25E-07,  avg # of iterations =  2.9

     total cpu time spent up to now is       38.8 secs

     total energy              =    -633.51031326 Ry
     Harris-Foulkes estimate   =    -633.51032771 Ry
     estimated scf accuracy    <       0.00008842 Ry

     iteration #  9     ecut=    45.00 Ry     beta= 0.70
     Davidson diagonalization with overlap
     ethr =  5.46E-08,  avg # of iterations =  2.5

     total cpu time spent up to now is       42.4 secs

     total energy              =    -633.51032264 Ry
     Harris-Foulkes estimate   =    -633.51032733 Ry
     estimated scf accuracy    <       0.00003107 Ry

     iteration # 10     ecut=    45.00 Ry     beta= 0.70
     Davidson diagonalization with overlap
     ethr =  1.92E-08,  avg # of iterations =  2.4

     total cpu time spent up to now is       45.9 secs

     total energy              =    -633.51032664 Ry
     Harris-Foulkes estimate   =    -633.51032748 Ry
     estimated scf accuracy    <       0.00000652 Ry

     iteration # 11     ecut=    45.00 Ry     beta= 0.70
     Davidson diagonalization with overlap
     ethr =  4.02E-09,  avg # of iterations =  3.4

     total cpu time spent up to now is       49.9 secs

     End of self-consistent calculation

          k = 0.0000 0.0000 0.0000 ( 16919 PWs)   bands (ev):

    -6.1484  -5.2443  -5.1752  -4.9674  -4.9281  -4.7395  -4.6747  -4.3637
    -4.3543  -4.3306  -4.2701  -4.2462  -4.1764  -4.1429  -4.0611  -4.0053
    -3.8907  -3.6271   1.8426   2.5542   2.6651   2.7646   2.8632   2.9449
     3.0200   3.0613   3.0795   3.1561   3.2276   3.3138   3.3932   3.4136
     3.5230   3.6283   3.7462   3.7921   3.8460   3.9333   3.9815   4.0789
     4.2214   4.3137   4.3506   4.4524   4.6352   4.6610   4.7179   4.7616
     4.8226   4.9938   5.1096   5.2090   5.2362   5.3720   5.5246   5.5558
     5.6417   5.6764   5.7214   5.7747   5.8838   5.9337   6.1423   6.3391
     6.4282   6.5415   6.6289   6.6934   6.9427   7.2210   7.3611   7.4240
     7.5150   7.5529   7.7357   7.7881   7.9033   7.9631   8.1923   8.3286
     8.4497   8.5147   8.8369   8.8720   9.0230   9.1831   9.2253   9.3154
     9.4714   9.5401   9.6414   9.8308   9.8753   9.9437  10.0939  10.1237
    10.2108

          k = 0.0032-0.0009-0.2857 ( 16916 PWs)   bands (ev):

    -5.9022  -5.8563  -5.0356  -4.9407  -4.6877  -4.6233  -4.5459  -4.4761
    -4.4458  -4.3370  -4.2847  -4.2331  -4.1801  -4.1143  -4.0914  -4.0671
    -3.8782  -3.6361   2.0407   2.2114   2.4659   2.5304   2.7063   2.8171
     2.9776   3.0435   3.0978   3.2571   3.3052   3.3760   3.4878   3.5575
     3.7029   3.7559   3.8347   3.9641   3.9674   4.0371   4.1281   4.1462
     4.2325   4.3475   4.4003   4.4527   4.5126   4.5434   4.6906   4.8046
     4.8836   5.0209   5.0621   5.1865   5.2322   5.3028   5.4144   5.4885
     5.5778   5.6138   5.7303   5.8990   5.9525   6.0413   6.3071   6.3347
     6.4211   6.4991   6.5301   6.6308   6.6852   6.9407   7.0928   7.2012
     7.4385   7.5845   7.6907   7.8320   7.9810   8.1399   8.3420   8.4245
     8.5867   8.7165   8.7412   8.8774   8.9213   9.1172   9.2454   9.3121
     9.4068   9.5128   9.5709   9.8417   9.9215  10.0564  10.1815  10.2022
    10.2326

          k = 0.0033-0.3155 0.0747 ( 16944 PWs)   bands (ev):

    -5.8623  -5.7366  -5.2049  -5.1374  -4.7877  -4.7072  -4.4598  -4.3976
    -4.3460  -4.3347  -4.2507  -4.2314  -4.1594  -4.1260  -4.0734  -3.9929
    -3.8587  -3.6282   2.1497   2.2496   2.3856   2.6417   2.7984   2.8340
     2.8979   3.0773   3.1572   3.2028   3.2456   3.3076   3.3981   3.4678
     3.5275   3.6525   3.6896   3.7457   3.8744   3.9016   3.9961   4.0527
     4.1256   4.1921   4.3259   4.4407   4.5297   4.7185   4.8130   4.8632
     4.9482   5.0343   5.1687   5.2804   5.4774   5.5743   5.6480   5.7233
     5.7850   5.8103   5.9491   5.9846   6.0904   6.1718   6.2105   6.3720
     6.4530   6.5520   6.6154   6.6587   6.7264   6.8192   7.0355   7.2815
     7.4155   7.4440   7.4849   7.6314   7.7550   7.8508   7.9933   8.2547
     8.4175   8.7758   8.8251   8.9147   8.9667   9.1363   9.1633   9.3182
     9.4867   9.4979   9.6258   9.7326   9.8718   9.9899  10.0560  10.1816
    10.2316

          k = 0.0065-0.3165-0.2110 ( 16914 PWs)   bands (ev):

    -5.7527  -5.6529  -5.4617  -5.3408  -4.5936  -4.5625  -4.4362  -4.3859
    -4.3572  -4.3225  -4.3162  -4.2744  -4.2003  -4.0828  -4.0554  -3.9800
    -3.8556  -3.6377   2.1528   2.3193   2.3828   2.4883   2.5167   2.6997
     2.8094   2.8967   2.9231   3.0393   3.1153   3.2403   3.2809   3.4736
     3.5392   3.7528   3.9347   3.9619   4.1591   4.2247   4.3040   4.4063
     4.5094   4.6045   4.6595   4.7193   4.7930   4.8137   4.8501   4.8977
     4.9300   5.0545   5.1144   5.1827   5.2424   5.3098   5.3976   5.4963
     5.5564   5.6671   5.7302   5.7978   5.8619   5.9502   6.1458   6.2186
     6.2425   6.3726   6.4684   6.5286   6.6115   6.8545   6.9265   7.3364
     7.4089   7.5673   7.6351   7.7559   7.9694   8.1179   8.2132   8.4783
     8.5730   8.6094   8.7521   8.9361   8.9845   9.0198   9.1436   9.2467
     9.3015   9.4881   9.5970   9.7869   9.8950   9.9511  10.1104  10.2171
    10.3225

          k = 0.3334-0.0007 0.0034 ( 16896 PWs)   bands (ev):

    -5.7949  -5.0919  -5.0228  -4.9527  -4.8477  -4.7573  -4.7226  -4.5916
    -4.5404  -4.4855  -4.4149  -4.3939  -4.2943  -4.1921  -4.0778  -3.9347
    -3.8110  -3.6866   2.3708   2.4314   2.5308   2.6057   2.7007   2.7330
     2.8336   2.9215   2.9790   3.0349   3.1513   3.2189   3.3422   3.3835
     3.4912   3.5715   3.6094   3.6936   4.1049   4.2268   4.2701   4.3801
     4.4578   4.5293   4.6513   4.6700   4.7661   4.8758   4.9174   4.9699
     5.0358   5.0889   5.1619   5.2259   5.3072   5.3379   5.4470   5.4914
     5.5846   5.7162   5.8651   5.9323   5.9889   6.0589   6.1854   6.3130
     6.3548   6.4916   6.6347   6.6901   6.8410   6.9476   7.1209   7.2128
     7.3101   7.3774   7.5588   7.7026   7.8127   7.9675   8.1127   8.2997
     8.4459   8.5232   8.6764   8.6821   8.8738   9.0578   9.1428   9.2602
     9.3780   9.5688   9.6611   9.7887   9.9251   9.9622  10.0613  10.2471
    10.3577

          k = 0.3366-0.0016-0.2823 ( 16900 PWs)   bands (ev):

    -5.5946  -5.5471  -4.9671  -4.8976  -4.8255  -4.7022  -4.6522  -4.6015
    -4.5508  -4.4721  -4.4152  -4.3640  -4.1971  -4.1826  -4.0823  -3.9401
    -3.8960  -3.7240   2.2239   2.3910   2.5453   2.6348   2.7078   2.7940
     2.8320   2.9421   3.0443   3.1064   3.1388   3.2445   3.3060   3.3260
     3.4279   3.6480   3.7866   3.8428   3.9180   4.1296   4.1934   4.3418
     4.4175   4.4608   4.5587   4.6742   4.7070   4.7695   4.8339   4.9683
     5.0553   5.1434   5.2352   5.3197   5.3698   5.4933   5.5489   5.6116
     5.7351   5.7609   5.8232   5.9255   6.0324   6.0739   6.1951   6.2929
     6.3794   6.5455   6.5809   6.6809   6.7937   6.8881   6.9855   7.1057
     7.1946   7.4184   7.4637   7.7057   7.8747   8.0419   8.1068   8.2350
     8.4681   8.5537   8.6373   8.7649   8.9684   9.0721   9.1201   9.2353
     9.3714   9.4791   9.6665   9.7585   9.9338  10.0570  10.1386  10.1928
    10.3196

          k = 0.3366-0.3162 0.0781 ( 16909 PWs)   bands (ev):

    -5.5637  -5.4407  -5.1092  -5.0129  -4.8268  -4.7056  -4.6790  -4.6037
    -4.5321  -4.4436  -4.4146  -4.3113  -4.2354  -4.1525  -4.0524  -3.9698
    -3.8714  -3.6702   2.2531   2.3615   2.4863   2.5331   2.6286   2.7301
     2.8662   2.9674   3.0276   3.1214   3.1907   3.3367   3.3990   3.4765
     3.6375   3.7293   3.7897   3.8198   3.8898   3.9841   4.1286   4.2899
     4.3105   4.3993   4.5457   4.6214   4.7144   4.7962   4.8898   4.9346
     5.0125   5.0592   5.1351   5.2132   5.2882   5.4305   5.4629   5.5614
     5.6912   5.7740   5.8912   6.0662   6.1321   6.2288   6.2973   6.3867
     6.4282   6.5175   6.5979   6.7756   6.8643   6.9437   6.9774   7.1565
     7.1941   7.4376   7.5243   7.5581   7.7803   7.8354   8.1390   8.3379
     8.3626   8.4962   8.6042   8.7828   8.8774   9.0556   9.2171   9.3400
     9.4020   9.5189   9.6697   9.7757   9.9616  10.0558  10.1229  10.2752
    10.4021

          k = 0.3398-0.3172-0.2075 ( 16921 PWs)   bands (ev):

    -5.4935  -5.3927  -5.2347  -5.1198  -4.8514  -4.6939  -4.6332  -4.6063
    -4.4896  -4.4335  -4.3695  -4.2935  -4.2295  -4.1415  -4.0666  -3.9742
    -3.8881  -3.6751   2.3020   2.3815   2.4268   2.5851   2.6427   2.7295
     2.7862   2.9074   3.0033   3.0369   3.1247   3.2245   3.2929   3.4497
     3.5529   3.6922   3.7316   3.8914   4.0852   4.2306   4.2844   4.3446
     4.3827   4.5073   4.5875   4.6230   4.6871   4.8473   4.9019   4.9665
     5.0169   5.0901   5.1634   5.2192   5.3141   5.4002   5.4974   5.5646
     5.6748   5.8042   5.8783   5.9606   6.0675   6.1521   6.2271   6.2818
     6.4026   6.4906   6.5937   6.6476   6.7778   6.9751   7.0737   7.1321
     7.2326   7.4104   7.5086   7.6764   7.8963   7.9293   8.0452   8.2720
     8.3512   8.4182   8.6042   8.8250   8.9597   9.0092   9.1958   9.3402
     9.4143   9.5347   9.7059   9.7981   9.9140  10.0007  10.1165  10.2149
    10.3010

     the Fermi energy is     8.4977 ev

!    total energy              =    -633.51032709 Ry
     Harris-Foulkes estimate   =    -633.51032771 Ry
     estimated scf accuracy    <       0.00000091 Ry

     The total energy is the sum of the following terms:

     one-electron contribution =     100.64018892 Ry
     hartree contribution      =      51.83507712 Ry
     xc contribution           =    -250.49804438 Ry
     ewald contribution        =    -535.48383498 Ry
     smearing contrib. (-TS)   =      -0.00371377 Ry

     convergence has been achieved in  11 iterations

     Forces acting on atoms (cartesian axes, Ry/au):

     atom    1 type  1   force =     0.00131861   -0.00639498   -0.00214096
     atom    2 type  1   force =     0.02601982   -0.00742198   -0.00290444
     atom    3 type  1   force =     0.02693808   -0.00094811   -0.00245800
     atom    4 type  1   force =    -0.00643002    0.01213060    0.00102840
     atom    5 type  1   force =    -0.01225798    0.00968187    0.01402472
     atom    6 type  1   force =    -0.01600391   -0.00298884   -0.01185915
     atom    7 type  1   force =    -0.01326648   -0.00026401    0.00581510
     atom    8 type  1   force =    -0.00039885   -0.00028179   -0.00400491
     atom    9 type  1   force =    -0.01107186    0.00882818    0.00852257
     atom   10 type  2   force =    -0.00173287   -0.00602852   -0.00064106
     atom   11 type  2   force =    -0.01501465    0.00638940   -0.00479412
     atom   12 type  2   force =     0.00746962   -0.00234986   -0.00642057
     atom   13 type  2   force =     0.01780830    0.00207513   -0.00012076
     atom   14 type  2   force =     0.00016106   -0.02113324   -0.00295698
     atom   15 type  2   force =    -0.00435065    0.00617302   -0.00220994
     atom   16 type  2   force =    -0.00783879   -0.00854221    0.00106196
     atom   17 type  2   force =    -0.01241654    0.00406651    0.00957056
     atom   18 type  2   force =    -0.00652051    0.00655297    0.00958229
     atom   19 type  2   force =     0.01733034   -0.01956492   -0.01334228
     atom   20 type  2   force =     0.01820599   -0.00362000    0.02615929
     atom   21 type  2   force =    -0.00510574   -0.00198071    0.00267501
     atom   22 type  2   force =    -0.01763318    0.01265768   -0.01099581
     atom   23 type  2   force =    -0.00093711    0.01974433    0.00087557
     atom   24 type  2   force =     0.00543121   -0.00185508    0.00642609
     atom   25 type  2   force =     0.00178240   -0.00274929   -0.01799818
     atom   26 type  2   force =    -0.00882200    0.00654674    0.00871722
     atom   27 type  2   force =     0.01733571   -0.00872288   -0.01161162

     Total force =     0.094492     Total SCF correction =     0.001957
 
     init_run     :      2.36s CPU      2.46s WALL (       1 calls)
     electrons    :     45.86s CPU     46.78s WALL (       1 calls)
     forces       :      1.35s CPU      1.38s WALL (       1 calls)

     Called by init_run:
     wfcinit      :      1.49s CPU      1.54s WALL (       1 calls)
     potinit      :      0.24s CPU      0.25s WALL (       1 calls)
     hinit0       :      0.34s CPU      0.35s WALL (       1 calls)

     Called by electrons:
     c_bands      :     37.62s CPU     38.31s WALL (      11 calls)
     sum_band     :      6.26s CPU      6.43s WALL (      11 calls)
     v_of_rho     :      0.35s CPU      0.38s WALL (      12 calls)
     newd         :      1.43s CPU      1.46s WALL (      12 calls)
     mix_rho      :      0.25s CPU      0.25s WALL (      11 calls)

     Called by c_bands:
     init_us_2    :      0.82s CPU      0.84s WALL (     192 calls)
     cegterg      :     35.11s CPU     35.77s WALL (      88 calls)

     Called by sum_band:
     sum_band:bec :      0.07s CPU      0.07s WALL (      88 calls)
     addusdens    :      2.08s CPU      2.11s WALL (      11 calls)

     Called by *egterg:
     h_psi        :     17.23s CPU     17.72s WALL (     427 calls)
     s_psi        :      2.92s CPU      2.93s WALL (     427 calls)
     g_psi        :      0.06s CPU      0.06s WALL (     331 calls)
     cdiaghg      :     10.98s CPU     11.12s WALL (     419 calls)

     Called by h_psi:
     h_psi:pot    :     17.14s CPU     17.62s WALL (     427 calls)
     h_psi:calbec :      3.43s CPU      3.57s WALL (     427 calls)
     vloc_psi     :     10.75s CPU     11.09s WALL (     427 calls)
     add_vuspsi   :      2.94s CPU      2.95s WALL (     427 calls)

     General routines
     calbec       :      5.14s CPU      5.34s WALL (     547 calls)
     fft          :      0.28s CPU      0.31s WALL (     165 calls)
     ffts         :      0.14s CPU      0.14s WALL (     227 calls)
     fftw         :     12.08s CPU     12.46s WALL (   50842 calls)
     interpolate  :      0.03s CPU      0.03s WALL (      12 calls)
 
     Parallel routines
     fft_scatt_xy :      1.36s CPU      1.41s WALL (   51234 calls)
     fft_scatt_yz :      5.62s CPU      5.82s WALL (   51234 calls)
 
     PWSCF        :     50.28s CPU     51.38s WALL

 
   This run was terminated on:  10:29:19  28Nov2021            

=------------------------------------------------------------------------------=
   JOB DONE.
=------------------------------------------------------------------------------=
