
     Program PWSCF v.6.4 starts on 14Oct2021 at 10: 0:48 

     This program is part of the open-source Quantum ESPRESSO suite
     for quantum simulation of materials; please cite
         "P. Giannozzi et al., J. Phys.:Condens. Matter 21 395502 (2009);
         "P. Giannozzi et al., J. Phys.:Condens. Matter 29 465901 (2017);
          URL http://www.quantum-espresso.org", 
     in publications or presentations arising from this work. More details at
     http://www.quantum-espresso.org/quote

     Parallel version (MPI), running on    40 processors

     MPI processes distributed on     1 nodes
     R & G space division:  proc/nbgrp/npool/nimage =      40
     Waiting for input...
     Reading input from standard input
Warning: card    &IONS ignored
Warning: card      ION_DYNAMICS = 'BFGS' ignored
Warning: card   / ignored
Warning: card    &CELL ignored
Warning: card      CELL_DYNAMICS = 'BFGS', ignored
Warning: card    / ignored

     Current dimensions of program PWSCF are:
     Max number of different atomic species (ntypx) = 10
     Max number of k-points (npk) =  40000
     Max angular momentum in pseudopotentials (lmaxx) =  3

     Subspace diagonalization in iterative solution of the eigenvalue problem:
     one sub-group per band group will be used
     scalapack distributed-memory algorithm (size of sub-group:  4*  4 procs)

 
     Parallelization info
     --------------------
     sticks:   dense  smooth     PW     G-vecs:    dense   smooth      PW
     Min          47      23      6                14820     5222     775
     Max          48      24      7                14836     5269     827
     Sum        1895     945    269               593123   209891   32143
 


     bravais-lattice index     =            0
     lattice parameter (alat)  =       5.9708  a.u.
     unit-cell volume          =    5145.1275 (a.u.)^3
     number of atoms/cell      =           24
     number of atomic types    =            2
     number of electrons       =       144.00
     number of Kohn-Sham states=           86
     kinetic-energy cutoff     =      45.0000  Ry
     charge density cutoff     =     360.0000  Ry
     convergence threshold     =      1.0E-06
     mixing beta               =       0.7000
     number of iterations used =            8  local-TF  mixing
     Exchange-correlation      = SLA PW GGX GGC ( 1  4  2  2 0 0)

     celldm(1)=   5.970770  celldm(2)=   0.000000  celldm(3)=   0.000000
     celldm(4)=   0.000000  celldm(5)=   0.000000  celldm(6)=   0.000000

     crystal axes: (cart. coord. in units of alat)
               a(1) = (   1.000000   0.000000   0.000000 )  
               a(2) = (  -0.114261   1.856979   0.000000 )  
               a(3) = (   0.750723   0.934847  13.016615 )  

     reciprocal axes: (cart. coord. in units 2 pi/alat)
               b(1) = (  1.000000  0.061531 -0.062093 )  
               b(2) = (  0.000000  0.538509 -0.038675 )  
               b(3) = (  0.000000  0.000000  0.076825 )  


     PseudoPot. # 1 for Mo read from file:
     ~/pseudo/Mo.pw91-n-van.UPF
     MD5 check sum: Not computed, couldn't open file
     Pseudo is Ultrasoft + core correction, Zval =  6.0
     Generated by new atomic code, or converted to UPF format
     Using radial grid of  965 points,  3 beta functions with: 
                l(1) =   1
                l(2) =   2
                l(3) =   2
     Q(r) pseudized with  8 coefficients,  rinner =    1.000   1.000   1.000
                                                       1.200   1.200

     PseudoPot. # 2 for S  read from file:
     ~/pseudo/S.pw91-van_ak.UPF
     MD5 check sum: Not computed, couldn't open file
     Pseudo is Ultrasoft, Zval =  6.0
     Generated by new atomic code, or converted to UPF format
     Using radial grid of  811 points,  6 beta functions with: 
                l(1) =   0
                l(2) =   0
                l(3) =   1
                l(4) =   1
                l(5) =   2
                l(6) =   2
     Q(r) pseudized with  8 coefficients,  rinner =    1.100   1.100   1.100
                                                       1.100   1.100

     atomic species   valence    mass     pseudopotential
        Mo             6.00    95.50000     Mo( 1.00)
        S              6.00    32.06500     S ( 1.00)

     No symmetry found



   Cartesian axes

     site n.     atom                  positions (alat units)
         1           Mo  tau(   1) = (   1.1160654   2.0519904  11.3245064  )
         2           Mo  tau(   2) = (   0.8509788   3.3295643   5.5843734  )
         3           Mo  tau(   3) = (   0.6912681   1.1075896  11.2880932  )
         4           Mo  tau(   4) = (   0.4034857   2.3811639   5.5828179  )
         5           Mo  tau(   5) = (   0.8423975   0.6601461   8.7169947  )
         6           Mo  tau(   6) = (   0.3595266   1.4724136   0.4233493  )
         7           Mo  tau(   7) = (   1.2747652   1.5832483   8.7184428  )
         8           Mo  tau(   8) = (   0.8930931   0.4681597   0.4165870  )
         9           S   tau(   9) = (   0.6137162   1.7074884  10.8267710  )
        10           S   tau(  10) = (   0.3407581   3.0025722   5.0894561  )
        11           S   tau(  11) = (   1.2189040   0.7672985  10.7625305  )
        12           S   tau(  12) = (   0.9005241   2.0602827   5.0450987  )
        13           S   tau(  13) = (   1.3348551   0.9904932   8.2164879  )
        14           S   tau(  14) = (   0.9589716  -0.1016399  -0.0655348  )
        15           S   tau(  15) = (   0.8805064   0.0649280   8.2158290  )
        16           S   tau(  16) = (   0.3812517   0.8228485  -0.0419336  )
        17           S   tau(  17) = (   0.6188565   1.7479630  11.8079523  )
        18           S   tau(  18) = (   0.3684255   2.9794572   6.0778424  )
        19           S   tau(  19) = (   1.2188512   0.7919357  11.8069846  )
        20           S   tau(  20) = (   0.9172731   2.0639035   6.1036549  )
        21           S   tau(  21) = (   1.3428246   0.9639231   9.2359259  )
        22           S   tau(  22) = (   0.9718349  -0.0634735   0.9114109  )
        23           S   tau(  23) = (   0.8865293   0.0406326   9.2297935  )
        24           S   tau(  24) = (   0.3790760   0.8467790   0.8955886  )

     number of k points=     8  Marzari-Vanderbilt smearing, width (Ry)=  0.0200
                       cart. coord. in units 2pi/alat
        k(    1) = (   0.0000000   0.0000000   0.0000000), wk =   0.1333333
        k(    2) = (   0.0000000   0.1795030  -0.0128918), wk =   0.2666667
        k(    3) = (   0.2000000   0.0123061  -0.0124187), wk =   0.2666667
        k(    4) = (   0.2000000   0.1918092  -0.0253105), wk =   0.2666667
        k(    5) = (   0.2000000  -0.1671969   0.0004732), wk =   0.2666667
        k(    6) = (   0.4000000   0.0246123  -0.0248373), wk =   0.2666667
        k(    7) = (   0.4000000   0.2041153  -0.0377291), wk =   0.2666667
        k(    8) = (   0.4000000  -0.1548908  -0.0119455), wk =   0.2666667

     Dense  grid:   593123 G-vectors     FFT dimensions: (  40,  72, 480)

     Smooth grid:   209891 G-vectors     FFT dimensions: (  25,  48, 360)

     Estimated max dynamical RAM per process >      81.58 MB

     Estimated total dynamical RAM >       3.19 GB

     Initial potential from superposition of free atoms

     starting charge  143.98738, renormalised to  144.00000

     negative rho (up, down):  3.263E-04 0.000E+00
     Starting wfcs are  136 randomized atomic wfcs

     total cpu time spent up to now is        3.5 secs

     Self-consistent Calculation

     iteration #  1     ecut=    45.00 Ry     beta= 0.70
     Davidson diagonalization with overlap
     ethr =  1.00E-02,  avg # of iterations =  2.0

     negative rho (up, down):  2.475E-05 0.000E+00

     total cpu time spent up to now is        8.0 secs

     total energy              =    -562.52580293 Ry
     Harris-Foulkes estimate   =    -564.46424121 Ry
     estimated scf accuracy    <       5.04605848 Ry

     iteration #  2     ecut=    45.00 Ry     beta= 0.70
     Davidson diagonalization with overlap
     ethr =  3.50E-03,  avg # of iterations =  2.4

     negative rho (up, down):  1.240E-06 0.000E+00

     total cpu time spent up to now is       12.2 secs

     total energy              =    -563.45619645 Ry
     Harris-Foulkes estimate   =    -563.60409373 Ry
     estimated scf accuracy    <       0.79121529 Ry

     iteration #  3     ecut=    45.00 Ry     beta= 0.70
     Davidson diagonalization with overlap
     ethr =  5.49E-04,  avg # of iterations =  2.0

     negative rho (up, down):  1.632E-08 0.000E+00

     total cpu time spent up to now is       15.7 secs

     total energy              =    -563.48341400 Ry
     Harris-Foulkes estimate   =    -563.52666657 Ry
     estimated scf accuracy    <       0.16415682 Ry

     iteration #  4     ecut=    45.00 Ry     beta= 0.70
     Davidson diagonalization with overlap
     ethr =  1.14E-04,  avg # of iterations =  3.5

     total cpu time spent up to now is       20.4 secs

     total energy              =    -563.51941814 Ry
     Harris-Foulkes estimate   =    -563.53179441 Ry
     estimated scf accuracy    <       0.08023868 Ry

     iteration #  5     ecut=    45.00 Ry     beta= 0.70
     Davidson diagonalization with overlap
     ethr =  5.57E-05,  avg # of iterations =  1.2

     total cpu time spent up to now is       23.6 secs

     total energy              =    -563.51782298 Ry
     Harris-Foulkes estimate   =    -563.52319799 Ry
     estimated scf accuracy    <       0.02782661 Ry

     iteration #  6     ecut=    45.00 Ry     beta= 0.70
     Davidson diagonalization with overlap
     ethr =  1.93E-05,  avg # of iterations =  6.4

     total cpu time spent up to now is       28.4 secs

     total energy              =    -563.51879421 Ry
     Harris-Foulkes estimate   =    -563.52048010 Ry
     estimated scf accuracy    <       0.00506435 Ry

     iteration #  7     ecut=    45.00 Ry     beta= 0.70
     Davidson diagonalization with overlap
     ethr =  3.52E-06,  avg # of iterations =  8.2

     total cpu time spent up to now is       35.3 secs

     total energy              =    -563.51943800 Ry
     Harris-Foulkes estimate   =    -563.52056365 Ry
     estimated scf accuracy    <       0.00787762 Ry

     iteration #  8     ecut=    45.00 Ry     beta= 0.70
     Davidson diagonalization with overlap
     ethr =  3.52E-06,  avg # of iterations =  1.9

     total cpu time spent up to now is       38.6 secs

     total energy              =    -563.51970842 Ry
     Harris-Foulkes estimate   =    -563.51978263 Ry
     estimated scf accuracy    <       0.00261490 Ry

     iteration #  9     ecut=    45.00 Ry     beta= 0.70
     Davidson diagonalization with overlap
     ethr =  1.82E-06,  avg # of iterations =  1.9

     total cpu time spent up to now is       41.9 secs

     total energy              =    -563.52011297 Ry
     Harris-Foulkes estimate   =    -563.51979317 Ry
     estimated scf accuracy    <       0.00150184 Ry

     iteration # 10     ecut=    45.00 Ry     beta= 0.70
     Davidson diagonalization with overlap
     ethr =  1.04E-06,  avg # of iterations =  4.1

     negative rho (up, down):  4.940E-07 0.000E+00

     total cpu time spent up to now is       46.3 secs

     total energy              =    -563.52028392 Ry
     Harris-Foulkes estimate   =    -563.52035932 Ry
     estimated scf accuracy    <       0.00153500 Ry

     iteration # 11     ecut=    45.00 Ry     beta= 0.70
     Davidson diagonalization with overlap
     ethr =  1.04E-06,  avg # of iterations =  1.8

     negative rho (up, down):  4.808E-05 0.000E+00

     total cpu time spent up to now is       49.9 secs

     total energy              =    -563.52037381 Ry
     Harris-Foulkes estimate   =    -563.52034778 Ry
     estimated scf accuracy    <       0.00048268 Ry

     iteration # 12     ecut=    45.00 Ry     beta= 0.70
     Davidson diagonalization with overlap
     ethr =  3.35E-07,  avg # of iterations =  3.1

     negative rho (up, down):  4.200E-04 0.000E+00

     total cpu time spent up to now is       54.2 secs

     total energy              =    -563.52040054 Ry
     Harris-Foulkes estimate   =    -563.52041141 Ry
     estimated scf accuracy    <       0.00020795 Ry

     iteration # 13     ecut=    45.00 Ry     beta= 0.70
     Davidson diagonalization with overlap
     ethr =  1.44E-07,  avg # of iterations =  1.6

     negative rho (up, down):  6.780E-04 0.000E+00

     total cpu time spent up to now is       57.7 secs

     total energy              =    -563.52042038 Ry
     Harris-Foulkes estimate   =    -563.52041373 Ry
     estimated scf accuracy    <       0.00005712 Ry

     iteration # 14     ecut=    45.00 Ry     beta= 0.70
     Davidson diagonalization with overlap
     c_bands:  1 eigenvalues not converged
     ethr =  3.97E-08,  avg # of iterations =  7.1

     negative rho (up, down):  5.008E-04 0.000E+00

     total cpu time spent up to now is       63.4 secs

     total energy              =    -563.52042240 Ry
     Harris-Foulkes estimate   =    -563.52042728 Ry
     estimated scf accuracy    <       0.00002850 Ry

     iteration # 15     ecut=    45.00 Ry     beta= 0.70
     Davidson diagonalization with overlap
     ethr =  1.98E-08,  avg # of iterations =  1.1

     negative rho (up, down):  5.294E-04 0.000E+00

     total cpu time spent up to now is       67.1 secs

     total energy              =    -563.52042375 Ry
     Harris-Foulkes estimate   =    -563.52042367 Ry
     estimated scf accuracy    <       0.00001137 Ry

     iteration # 16     ecut=    45.00 Ry     beta= 0.70
     Davidson diagonalization with overlap
     ethr =  7.90E-09,  avg # of iterations =  2.2

     negative rho (up, down):  4.797E-04 0.000E+00

     total cpu time spent up to now is       70.9 secs

     total energy              =    -563.52042337 Ry
     Harris-Foulkes estimate   =    -563.52042422 Ry
     estimated scf accuracy    <       0.00000787 Ry

     iteration # 17     ecut=    45.00 Ry     beta= 0.70
     Davidson diagonalization with overlap
     ethr =  5.47E-09,  avg # of iterations =  1.4

     negative rho (up, down):  4.754E-04 0.000E+00

     total cpu time spent up to now is       74.4 secs

     total energy              =    -563.52042325 Ry
     Harris-Foulkes estimate   =    -563.52042369 Ry
     estimated scf accuracy    <       0.00000548 Ry

     iteration # 18     ecut=    45.00 Ry     beta= 0.70
     Davidson diagonalization with overlap
     ethr =  3.81E-09,  avg # of iterations =  1.4

     negative rho (up, down):  4.573E-04 0.000E+00

     total cpu time spent up to now is       78.0 secs

     total energy              =    -563.52042255 Ry
     Harris-Foulkes estimate   =    -563.52042346 Ry
     estimated scf accuracy    <       0.00000310 Ry

     iteration # 19     ecut=    45.00 Ry     beta= 0.70
     Davidson diagonalization with overlap
     ethr =  2.16E-09,  avg # of iterations =  3.1

     negative rho (up, down):  4.549E-04 0.000E+00

     total cpu time spent up to now is       81.9 secs

     End of self-consistent calculation

          k = 0.0000 0.0000 0.0000 ( 26243 PWs)   bands (ev):

   -12.2485 -11.7210 -11.6207 -11.6048 -10.9391 -10.7257 -10.6151 -10.5688
   -10.5380 -10.3024 -10.2363 -10.1573 -10.1474  -9.9972  -9.9464  -9.9163
    -3.9652  -3.6505  -3.4374  -3.3450  -3.3221  -3.1662  -3.1140  -3.0997
    -2.6086  -2.3324  -2.2626  -2.2624  -2.2003  -1.7758  -1.6926  -1.6909
    -1.4637  -1.0431  -0.8136  -0.7050  -0.6945  -0.6611  -0.5266  -0.4735
    -0.3314  -0.3081  -0.1356  -0.0719   0.0100   0.0685   0.0988   0.1360
     0.1575   0.2295   0.3125   0.3150   0.4004   0.5086   0.5183   0.6090
     0.8559   0.9159   1.0396   1.0464   1.0969   1.1137   1.1845   1.2320
     1.2546   1.5172   1.5866   1.6394   1.9093   2.0299   2.0834   2.2865
     3.3788   3.7067   3.7277   3.7967   3.8732   4.1966   4.2474   4.2573
     4.2860   4.3595   4.4079   4.4549   4.4667   4.4705

          k = 0.0000 0.1795-0.0129 ( 26334 PWs)   bands (ev):

   -11.9490 -11.4228 -11.3209 -11.2977 -11.1485 -10.8770 -10.6858 -10.5887
   -10.5861 -10.4581 -10.4131 -10.3994 -10.3673 -10.1659 -10.1194 -10.0920
    -3.5744  -3.2357  -2.9322  -2.8332  -2.7505  -2.7365  -2.7253  -2.6503
    -2.3232  -2.2421  -1.8968  -1.8504  -1.8259  -1.8029  -1.7862  -1.7811
    -1.7330  -1.2697  -1.2515  -1.1944  -1.1763  -0.8215  -0.7696  -0.7325
    -0.6744  -0.5268  -0.2269  -0.0697  -0.0403   0.1258   0.1708   0.2084
     0.3110   0.3198   0.3793   0.3948   0.4349   0.4684   0.5814   0.6345
     0.6528   0.7537   0.8418   0.8959   0.9262   0.9351   0.9637   0.9743
     1.0790   1.2426   1.2726   1.2954   1.5259   1.6288   1.6991   1.7558
     3.3348   3.7311   3.7789   3.8262   3.8918   3.9774   3.9830   4.0148
     4.1764   4.2171   4.2373   4.2901   4.3853   4.4068

          k = 0.2000 0.0123-0.0124 ( 26252 PWs)   bands (ev):

   -11.8539 -11.3306 -11.2318 -11.2112 -10.7624 -10.5597 -10.3985 -10.3420
   -10.3175 -10.1067 -10.0584  -9.9750  -9.9666  -9.8229  -9.7728  -9.7498
    -3.3984  -3.2297  -3.0708  -2.8912  -2.7755  -2.7541  -2.7161  -2.6680
    -2.6520  -2.5889  -2.5104  -2.4925  -2.1069  -1.8249  -1.6991  -1.5989
    -1.5858  -1.2836  -1.1130  -0.9968  -0.9827  -0.8724  -0.8121  -0.7840
    -0.7104  -0.6225  -0.6173  -0.5893  -0.5269  -0.5246  -0.5136  -0.4008
    -0.3273  -0.3099  -0.1827  -0.1790  -0.1687  -0.1050   0.0008   0.0284
     0.0327   0.1253   0.1337   0.1743   1.0489   1.2082   1.2126   1.2581
     1.3566   1.7344   1.7813   1.7964   1.8346   1.8652   1.8736   1.8892
     3.0495   3.6100   3.6514   3.7263   3.7789   3.8754   3.8771   3.9387
     3.9580   4.0507   4.0708   4.1872   4.3234   4.3658

          k = 0.2000 0.1918-0.0253 ( 26259 PWs)   bands (ev):

   -11.5614 -11.0311 -10.9463 -10.9341 -10.9008 -10.6979 -10.4802 -10.3794
   -10.3737 -10.2207 -10.1801 -10.1534 -10.1409 -10.0258  -9.9888  -9.9694
    -3.2802  -3.0212  -2.6546  -2.5439  -2.4997  -2.4681  -2.4614  -2.4441
    -2.3732  -1.9868  -1.9497  -1.8010  -1.7967  -1.7931  -1.6497  -1.5321
    -1.5090  -1.4277  -1.3652  -1.3096  -1.2585  -1.2479  -1.0926  -0.9998
    -0.9506  -0.9323  -0.8925  -0.8693  -0.8464  -0.8277  -0.6339  -0.5929
    -0.5696  -0.3768  -0.3667  -0.3155  -0.3032  -0.0137   0.1105   0.1307
     0.4336   0.5743   0.5787   0.6465   0.8788   1.0167   1.0334   1.0735
     1.1763   1.4282   1.5055   1.5218   1.6188   1.6854   1.6951   1.7089
     3.1090   3.6413   3.6536   3.6728   3.7958   3.8325   3.8414   3.8564
     3.9099   3.9263   4.0239   4.0719   4.1783   4.2523

          k = 0.2000-0.1672 0.0005 ( 26253 PWs)   bands (ev):

   -11.6308 -11.1103 -11.0085 -10.9813 -10.8633 -10.7293 -10.4092 -10.3154
   -10.2813 -10.2638 -10.2400 -10.2180 -10.1439  -9.9374  -9.8740  -9.8535
    -3.3664  -3.0976  -2.7677  -2.6575  -2.6223  -2.5907  -2.5456  -2.4719
    -2.4464  -2.1966  -2.1013  -2.0362  -2.0351  -1.8741  -1.7590  -1.6345
    -1.5851  -1.4950  -1.4751  -1.4469  -1.3760  -1.1690  -1.1418  -1.0384
    -1.0024  -0.8797  -0.8754  -0.8569  -0.7650  -0.5860  -0.3672  -0.2267
    -0.2194  -0.1901  -0.1656  -0.0323  -0.0132   0.3370   0.3803   0.4194
     0.4933   0.6507   0.6792   0.7487   0.8408   0.9277   0.9598   0.9681
     1.0841   1.2906   1.3470   1.3622   1.4245   1.5127   1.5260   1.5391
     3.3761   3.6752   3.7561   3.8263   3.9073   3.9176   3.9621   4.0054
     4.1107   4.1636   4.1695   4.1806   4.2710   4.3408

          k = 0.4000 0.0246-0.0248 ( 26166 PWs)   bands (ev):

   -10.9867 -10.4653 -10.4297 -10.3967 -10.3643 -10.3232  -9.9644  -9.8571
    -9.8492  -9.8346  -9.7881  -9.7800  -9.7597  -9.5931  -9.5602  -9.5550
    -3.4798  -3.4232  -2.9875  -2.8626  -2.8164  -2.8132  -2.7251  -2.6196
    -2.6169  -2.5307  -2.5191  -2.4587  -2.4404  -2.2032  -1.9975  -1.9380
    -1.9038  -1.8331  -1.5860  -1.5700  -1.5132  -1.5041  -1.4800  -1.4424
    -1.4245  -1.4159  -1.2841  -1.1664  -1.1358  -1.1157  -1.0121  -0.9998
    -0.9906  -0.8149  -0.7918  -0.7676  -0.3653  -0.0456   0.0636   0.1392
     0.2082   0.2117   0.2183   0.2536   0.5710   0.8320   0.8702   0.8953
     0.9401   1.2270   1.2374   1.2906   1.8907   1.9286   1.9391   1.9677
     2.9896   3.6436   3.6614   3.7674   3.8094   3.8683   3.8948   4.0689
     4.1828   4.2718   4.4166   4.4336   4.4500   4.5492

          k = 0.4000 0.2041-0.0377 ( 26174 PWs)   bands (ev):

   -10.8430 -10.5574 -10.4167 -10.2928 -10.2144 -10.1272 -10.0838  -9.9938
    -9.9443  -9.8275  -9.8112  -9.7496  -9.7446  -9.7039  -9.6639  -9.6617
    -3.6345  -3.4308  -3.0824  -3.0381  -3.0164  -2.9945  -2.9859  -2.8808
    -2.8555  -2.5370  -2.4981  -2.4255  -2.4043  -2.2836  -2.1540  -2.1192
    -2.0875  -1.8816  -1.8357  -1.7258  -1.6614  -1.6058  -1.5629  -1.5110
    -1.4875  -1.2702  -1.2188  -1.2110  -1.1662  -0.8413  -0.7409  -0.7319
    -0.4599  -0.0670   0.0435   0.1133   0.1263   0.1875   0.2064   0.2345
     0.2920   0.4289   0.5049   0.5150   0.5860   0.6482   0.6537   0.8035
     0.9807   1.4354   1.4886   1.5331   1.5922   1.7873   1.8037   1.8179
     3.0963   3.6722   3.6861   3.7503   3.8524   3.8987   3.9184   3.9494
     4.1605   4.3353   4.3522   4.4281   4.5378   4.5907

          k = 0.4000-0.1549-0.0119 ( 26141 PWs)   bands (ev):

   -10.9241 -10.4708 -10.4436 -10.3975 -10.3017 -10.2536 -10.0077  -9.9100
    -9.8790  -9.8692  -9.8458  -9.8036  -9.7804  -9.6009  -9.5277  -9.5243
    -3.6903  -3.3648  -3.1642  -3.1280  -3.0224  -2.9941  -2.9763  -2.8924
    -2.8676  -2.6426  -2.6071  -2.5923  -2.5097  -2.3560  -2.1701  -2.1019
    -2.0674  -1.9345  -1.7773  -1.7253  -1.6956  -1.6401  -1.6211  -1.5817
    -1.5370  -1.2440  -1.2298  -1.2051  -1.1275  -0.7553  -0.6391  -0.5994
    -0.5806  -0.2124  -0.1213  -0.0861   0.0556   0.2254   0.2853   0.3124
     0.4409   0.5083   0.5391   0.5736   0.7883   0.8861   0.9371   0.9510
     0.9937   1.2766   1.3413   1.3549   1.6037   1.8523   1.8952   1.9020
     3.2502   3.7308   3.7557   3.8167   3.9887   4.0265   4.0426   4.0595
     4.2674   4.3747   4.4583   4.5213   4.5557   4.6545

     the Fermi energy is     2.1238 ev

!    total energy              =    -563.52042253 Ry
     Harris-Foulkes estimate   =    -563.52042311 Ry
     estimated scf accuracy    <       0.00000065 Ry

     The total energy is the sum of the following terms:

     one-electron contribution =   -2835.70401598 Ry
     hartree contribution      =    1477.38291247 Ry
     xc contribution           =    -222.14557680 Ry
     ewald contribution        =    1016.92813634 Ry
     smearing contrib. (-TS)   =       0.01812144 Ry

     convergence has been achieved in  19 iterations

     negative rho (up, down):  4.549E-04 0.000E+00

     Forces acting on atoms (cartesian axes, Ry/au):

     atom    1 type  1   force =    -0.01095658   -0.01925785   -0.05612791
     atom    2 type  1   force =    -0.02404502   -0.02921936   -0.00191690
     atom    3 type  1   force =     0.01204344   -0.02756397    0.01466422
     atom    4 type  1   force =    -0.01215824   -0.02202419   -0.02336862
     atom    5 type  1   force =     0.01370875    0.00781885    0.02141576
     atom    6 type  1   force =    -0.01664719   -0.06409452    0.02161370
     atom    7 type  1   force =     0.02132378    0.02039889    0.01568016
     atom    8 type  1   force =     0.01186441    0.15565418    0.00799757
     atom    9 type  2   force =     0.01478692    0.03219813    0.00333653
     atom   10 type  2   force =     0.02379599   -0.00078729    0.01897341
     atom   11 type  2   force =    -0.01208130    0.02161524    0.06763340
     atom   12 type  2   force =     0.01568589    0.01659561    0.07112571
     atom   13 type  2   force =    -0.00638400   -0.01564817    0.02223568
     atom   14 type  2   force =     0.00825634   -0.01073493   -0.05278337
     atom   15 type  2   force =    -0.00354513   -0.02114641    0.02638311
     atom   16 type  2   force =     0.00127401    0.00368132   -0.03659647
     atom   17 type  2   force =     0.01137087   -0.03392010   -0.00224517
     atom   18 type  2   force =    -0.00331571    0.02483957   -0.01518528
     atom   19 type  2   force =    -0.01470006    0.02627285   -0.02929419
     atom   20 type  2   force =     0.00040970    0.01115144   -0.04819799
     atom   21 type  2   force =    -0.01501743    0.00699942   -0.04576500
     atom   22 type  2   force =    -0.00766602   -0.05949645    0.04969047
     atom   23 type  2   force =    -0.01000249    0.00153363   -0.04073753
     atom   24 type  2   force =     0.00199908   -0.02486588    0.01146871

     Total force =     0.273888     Total SCF correction =     0.001438
 
     init_run     :      2.75s CPU      2.83s WALL (       1 calls)
     electrons    :     76.34s CPU     78.41s WALL (       1 calls)
     forces       :      1.46s CPU      1.51s WALL (       1 calls)

     Called by init_run:
     wfcinit      :      1.48s CPU      1.52s WALL (       1 calls)
     potinit      :      0.37s CPU      0.37s WALL (       1 calls)
     hinit0       :      0.46s CPU      0.47s WALL (       1 calls)

     Called by electrons:
     c_bands      :     55.67s CPU     56.56s WALL (      19 calls)
     sum_band     :     11.10s CPU     11.81s WALL (      19 calls)
     v_of_rho     :      0.81s CPU      0.88s WALL (      20 calls)
     newd         :      3.68s CPU      3.98s WALL (      20 calls)
     mix_rho      :      5.16s CPU      5.22s WALL (      19 calls)

     Called by c_bands:
     init_us_2    :      1.08s CPU      1.09s WALL (     320 calls)
     cegterg      :     51.03s CPU     51.88s WALL (     152 calls)

     Called by sum_band:
     sum_band:bec :      0.08s CPU      0.09s WALL (     152 calls)
     addusdens    :      4.27s CPU      4.78s WALL (      19 calls)

     Called by *egterg:
     h_psi        :     26.25s CPU     26.86s WALL (     612 calls)
     s_psi        :      4.48s CPU      4.50s WALL (     612 calls)
     g_psi        :      0.07s CPU      0.07s WALL (     452 calls)
     cdiaghg      :     12.24s CPU     12.41s WALL (     604 calls)

     Called by h_psi:
     h_psi:pot    :     26.09s CPU     26.70s WALL (     612 calls)
     h_psi:calbec :      5.00s CPU      5.20s WALL (     612 calls)
     vloc_psi     :     16.54s CPU     16.93s WALL (     612 calls)
     add_vuspsi   :      4.54s CPU      4.57s WALL (     612 calls)

     General routines
     calbec       :      7.39s CPU      7.68s WALL (     796 calls)
     fft          :      0.80s CPU      0.86s WALL (     269 calls)
     ffts         :      2.69s CPU      2.71s WALL (    4297 calls)
     fftw         :     19.00s CPU     19.45s WALL (   74238 calls)
     interpolate  :      0.07s CPU      0.08s WALL (      20 calls)
 
     Parallel routines
     fft_scatt_xy :      1.77s CPU      1.81s WALL (   78804 calls)
     fft_scatt_yz :     12.62s CPU     12.96s WALL (   78804 calls)
 
     PWSCF        :   1m21.22s CPU   1m23.52s WALL

 
   This run was terminated on:  10: 2:12  14Oct2021            

=------------------------------------------------------------------------------=
   JOB DONE.
=------------------------------------------------------------------------------=

     Program PWSCF v.6.4 starts on 14Oct2021 at 10:49:23 

     This program is part of the open-source Quantum ESPRESSO suite
     for quantum simulation of materials; please cite
         "P. Giannozzi et al., J. Phys.:Condens. Matter 21 395502 (2009);
         "P. Giannozzi et al., J. Phys.:Condens. Matter 29 465901 (2017);
          URL http://www.quantum-espresso.org", 
     in publications or presentations arising from this work. More details at
     http://www.quantum-espresso.org/quote

     Parallel version (MPI), running on    40 processors

     MPI processes distributed on     1 nodes
     R & G space division:  proc/nbgrp/npool/nimage =      40
     Waiting for input...
     Reading input from standard input
Warning: card    &IONS ignored
Warning: card      ION_DYNAMICS = 'BFGS' ignored
Warning: card   / ignored
Warning: card    &CELL ignored
Warning: card      CELL_DYNAMICS = 'BFGS', ignored
Warning: card    / ignored

     Current dimensions of program PWSCF are:
     Max number of different atomic species (ntypx) = 10
     Max number of k-points (npk) =  40000
     Max angular momentum in pseudopotentials (lmaxx) =  3

     Subspace diagonalization in iterative solution of the eigenvalue problem:
     one sub-group per band group will be used
     scalapack distributed-memory algorithm (size of sub-group:  4*  4 procs)

 
     Parallelization info
     --------------------
     sticks:   dense  smooth     PW     G-vecs:    dense   smooth      PW
     Min          47      23      6                14820     5222     775
     Max          48      24      7                14836     5269     827
     Sum        1895     945    269               593123   209891   32143
 


     bravais-lattice index     =            0
     lattice parameter (alat)  =       5.9708  a.u.
     unit-cell volume          =    5145.1275 (a.u.)^3
     number of atoms/cell      =           24
     number of atomic types    =            2
     number of electrons       =       144.00
     number of Kohn-Sham states=           86
     kinetic-energy cutoff     =      45.0000  Ry
     charge density cutoff     =     360.0000  Ry
     convergence threshold     =      1.0E-06
     mixing beta               =       0.7000
     number of iterations used =            8  local-TF  mixing
     Exchange-correlation      = SLA PW GGX GGC ( 1  4  2  2 0 0)

     celldm(1)=   5.970770  celldm(2)=   0.000000  celldm(3)=   0.000000
     celldm(4)=   0.000000  celldm(5)=   0.000000  celldm(6)=   0.000000

     crystal axes: (cart. coord. in units of alat)
               a(1) = (   1.000000   0.000000   0.000000 )  
               a(2) = (  -0.114261   1.856979   0.000000 )  
               a(3) = (   0.750723   0.934847  13.016615 )  

     reciprocal axes: (cart. coord. in units 2 pi/alat)
               b(1) = (  1.000000  0.061531 -0.062093 )  
               b(2) = (  0.000000  0.538509 -0.038675 )  
               b(3) = (  0.000000  0.000000  0.076825 )  


     PseudoPot. # 1 for Mo read from file:
     ~/pseudo/Mo.pw91-n-van.UPF
     MD5 check sum: Not computed, couldn't open file
     Pseudo is Ultrasoft + core correction, Zval =  6.0
     Generated by new atomic code, or converted to UPF format
     Using radial grid of  965 points,  3 beta functions with: 
                l(1) =   1
                l(2) =   2
                l(3) =   2
     Q(r) pseudized with  8 coefficients,  rinner =    1.000   1.000   1.000
                                                       1.200   1.200

     PseudoPot. # 2 for S  read from file:
     ~/pseudo/S.pw91-van_ak.UPF
     MD5 check sum: Not computed, couldn't open file
     Pseudo is Ultrasoft, Zval =  6.0
     Generated by new atomic code, or converted to UPF format
     Using radial grid of  811 points,  6 beta functions with: 
                l(1) =   0
                l(2) =   0
                l(3) =   1
                l(4) =   1
                l(5) =   2
                l(6) =   2
     Q(r) pseudized with  8 coefficients,  rinner =    1.100   1.100   1.100
                                                       1.100   1.100

     atomic species   valence    mass     pseudopotential
        Mo             6.00    95.50000     Mo( 1.00)
        S              6.00    32.06500     S ( 1.00)

     No symmetry found



   Cartesian axes

     site n.     atom                  positions (alat units)
         1           Mo  tau(   1) = (   1.1160654   2.0519904  11.3245064  )
         2           Mo  tau(   2) = (   0.8509788   3.3295643   5.5843734  )
         3           Mo  tau(   3) = (   0.6912681   1.1075896  11.2880932  )
         4           Mo  tau(   4) = (   0.4034857   2.3811639   5.5828179  )
         5           Mo  tau(   5) = (   0.8423975   0.6601461   8.7169947  )
         6           Mo  tau(   6) = (   0.3595266   1.4724136   0.4233493  )
         7           Mo  tau(   7) = (   1.2747652   1.5832483   8.7184428  )
         8           Mo  tau(   8) = (   0.8930931   0.4681597   0.4165870  )
         9           S   tau(   9) = (   0.6137162   1.7074884  10.8267710  )
        10           S   tau(  10) = (   0.3407581   3.0025722   5.0894561  )
        11           S   tau(  11) = (   1.2189040   0.7672985  10.7625305  )
        12           S   tau(  12) = (   0.9005241   2.0602827   5.0450987  )
        13           S   tau(  13) = (   1.3348551   0.9904932   8.2164879  )
        14           S   tau(  14) = (   0.9589716  -0.1016399  -0.0655348  )
        15           S   tau(  15) = (   0.8805064   0.0649280   8.2158290  )
        16           S   tau(  16) = (   0.3812517   0.8228485  -0.0419336  )
        17           S   tau(  17) = (   0.6188565   1.7479630  11.8079523  )
        18           S   tau(  18) = (   0.3684255   2.9794572   6.0778424  )
        19           S   tau(  19) = (   1.2188512   0.7919357  11.8069846  )
        20           S   tau(  20) = (   0.9172731   2.0639035   6.1036549  )
        21           S   tau(  21) = (   1.3428246   0.9639231   9.2359259  )
        22           S   tau(  22) = (   0.9718349  -0.0634735   0.9114109  )
        23           S   tau(  23) = (   0.8865293   0.0406326   9.2297935  )
        24           S   tau(  24) = (   0.3790760   0.8467790   0.8955886  )

     number of k points=     8  Marzari-Vanderbilt smearing, width (Ry)=  0.0200
                       cart. coord. in units 2pi/alat
        k(    1) = (   0.0000000   0.0000000   0.0000000), wk =   0.1333333
        k(    2) = (   0.0000000   0.1795030  -0.0128918), wk =   0.2666667
        k(    3) = (   0.2000000   0.0123061  -0.0124187), wk =   0.2666667
        k(    4) = (   0.2000000   0.1918092  -0.0253105), wk =   0.2666667
        k(    5) = (   0.2000000  -0.1671969   0.0004732), wk =   0.2666667
        k(    6) = (   0.4000000   0.0246123  -0.0248373), wk =   0.2666667
        k(    7) = (   0.4000000   0.2041153  -0.0377291), wk =   0.2666667
        k(    8) = (   0.4000000  -0.1548908  -0.0119455), wk =   0.2666667

     Dense  grid:   593123 G-vectors     FFT dimensions: (  40,  72, 480)

     Smooth grid:   209891 G-vectors     FFT dimensions: (  25,  48, 360)

     Estimated max dynamical RAM per process >      81.58 MB

     Estimated total dynamical RAM >       3.19 GB

     Initial potential from superposition of free atoms

     starting charge  143.98738, renormalised to  144.00000

     negative rho (up, down):  3.263E-04 0.000E+00
     Starting wfcs are  136 randomized atomic wfcs

     total cpu time spent up to now is        4.0 secs

     Self-consistent Calculation

     iteration #  1     ecut=    45.00 Ry     beta= 0.70
     Davidson diagonalization with overlap
     ethr =  1.00E-02,  avg # of iterations =  2.0

     negative rho (up, down):  2.475E-05 0.000E+00

     total cpu time spent up to now is        9.3 secs

     total energy              =    -562.52580293 Ry
     Harris-Foulkes estimate   =    -564.46424121 Ry
     estimated scf accuracy    <       5.04605848 Ry

     iteration #  2     ecut=    45.00 Ry     beta= 0.70
     Davidson diagonalization with overlap
     ethr =  3.50E-03,  avg # of iterations =  2.4

     negative rho (up, down):  1.240E-06 0.000E+00

     total cpu time spent up to now is       14.4 secs

     total energy              =    -563.45619645 Ry
     Harris-Foulkes estimate   =    -563.60409373 Ry
     estimated scf accuracy    <       0.79121529 Ry

     iteration #  3     ecut=    45.00 Ry     beta= 0.70
     Davidson diagonalization with overlap
     ethr =  5.49E-04,  avg # of iterations =  2.0

     negative rho (up, down):  1.632E-08 0.000E+00

     total cpu time spent up to now is       18.7 secs

     total energy              =    -563.48341400 Ry
     Harris-Foulkes estimate   =    -563.52666657 Ry
     estimated scf accuracy    <       0.16415682 Ry

     iteration #  4     ecut=    45.00 Ry     beta= 0.70
     Davidson diagonalization with overlap
     ethr =  1.14E-04,  avg # of iterations =  3.5

     total cpu time spent up to now is       24.3 secs

     total energy              =    -563.51941814 Ry
     Harris-Foulkes estimate   =    -563.53179441 Ry
     estimated scf accuracy    <       0.08023868 Ry

     iteration #  5     ecut=    45.00 Ry     beta= 0.70
     Davidson diagonalization with overlap
     ethr =  5.57E-05,  avg # of iterations =  1.2

     total cpu time spent up to now is       28.1 secs

     total energy              =    -563.51782298 Ry
     Harris-Foulkes estimate   =    -563.52319799 Ry
     estimated scf accuracy    <       0.02782661 Ry

     iteration #  6     ecut=    45.00 Ry     beta= 0.70
     Davidson diagonalization with overlap
     ethr =  1.93E-05,  avg # of iterations =  6.4

     total cpu time spent up to now is       34.0 secs

     total energy              =    -563.51879421 Ry
     Harris-Foulkes estimate   =    -563.52048010 Ry
     estimated scf accuracy    <       0.00506435 Ry

     iteration #  7     ecut=    45.00 Ry     beta= 0.70
     Davidson diagonalization with overlap
     ethr =  3.52E-06,  avg # of iterations =  8.2

     total cpu time spent up to now is       42.7 secs

     total energy              =    -563.51943800 Ry
     Harris-Foulkes estimate   =    -563.52056365 Ry
     estimated scf accuracy    <       0.00787762 Ry

     iteration #  8     ecut=    45.00 Ry     beta= 0.70
     Davidson diagonalization with overlap
     ethr =  3.52E-06,  avg # of iterations =  1.9

     total cpu time spent up to now is       47.4 secs

     total energy              =    -563.51970842 Ry
     Harris-Foulkes estimate   =    -563.51978263 Ry
     estimated scf accuracy    <       0.00261490 Ry

     iteration #  9     ecut=    45.00 Ry     beta= 0.70
     Davidson diagonalization with overlap
     ethr =  1.82E-06,  avg # of iterations =  1.9

     total cpu time spent up to now is       51.8 secs

     total energy              =    -563.52011297 Ry
     Harris-Foulkes estimate   =    -563.51979317 Ry
     estimated scf accuracy    <       0.00150184 Ry

     iteration # 10     ecut=    45.00 Ry     beta= 0.70
     Davidson diagonalization with overlap
     ethr =  1.04E-06,  avg # of iterations =  4.1

     negative rho (up, down):  4.940E-07 0.000E+00

     total cpu time spent up to now is       57.1 secs

     total energy              =    -563.52028392 Ry
     Harris-Foulkes estimate   =    -563.52035932 Ry
     estimated scf accuracy    <       0.00153500 Ry

     iteration # 11     ecut=    45.00 Ry     beta= 0.70
     Davidson diagonalization with overlap
     ethr =  1.04E-06,  avg # of iterations =  1.8

     negative rho (up, down):  4.808E-05 0.000E+00

     total cpu time spent up to now is       61.4 secs

     total energy              =    -563.52037381 Ry
     Harris-Foulkes estimate   =    -563.52034778 Ry
     estimated scf accuracy    <       0.00048268 Ry

     iteration # 12     ecut=    45.00 Ry     beta= 0.70
     Davidson diagonalization with overlap
     ethr =  3.35E-07,  avg # of iterations =  3.1

     negative rho (up, down):  4.200E-04 0.000E+00

     total cpu time spent up to now is       66.7 secs

     total energy              =    -563.52040054 Ry
     Harris-Foulkes estimate   =    -563.52041140 Ry
     estimated scf accuracy    <       0.00020795 Ry

     iteration # 13     ecut=    45.00 Ry     beta= 0.70
     Davidson diagonalization with overlap
     ethr =  1.44E-07,  avg # of iterations =  1.6

     negative rho (up, down):  6.780E-04 0.000E+00

     total cpu time spent up to now is       71.1 secs

     total energy              =    -563.52042037 Ry
     Harris-Foulkes estimate   =    -563.52041372 Ry
     estimated scf accuracy    <       0.00005711 Ry

     iteration # 14     ecut=    45.00 Ry     beta= 0.70
     Davidson diagonalization with overlap
     c_bands:  1 eigenvalues not converged
     ethr =  3.97E-08,  avg # of iterations =  7.1

     negative rho (up, down):  5.008E-04 0.000E+00

     total cpu time spent up to now is       77.8 secs

     total energy              =    -563.52042240 Ry
     Harris-Foulkes estimate   =    -563.52042728 Ry
     estimated scf accuracy    <       0.00002850 Ry

     iteration # 15     ecut=    45.00 Ry     beta= 0.70
     Davidson diagonalization with overlap
     ethr =  1.98E-08,  avg # of iterations =  1.1

     negative rho (up, down):  5.294E-04 0.000E+00

     total cpu time spent up to now is       82.3 secs

     total energy              =    -563.52042375 Ry
     Harris-Foulkes estimate   =    -563.52042367 Ry
     estimated scf accuracy    <       0.00001137 Ry

     iteration # 16     ecut=    45.00 Ry     beta= 0.70
     Davidson diagonalization with overlap
     ethr =  7.90E-09,  avg # of iterations =  2.2

     negative rho (up, down):  4.796E-04 0.000E+00

     total cpu time spent up to now is       86.9 secs

     total energy              =    -563.52042337 Ry
     Harris-Foulkes estimate   =    -563.52042422 Ry
     estimated scf accuracy    <       0.00000787 Ry

     iteration # 17     ecut=    45.00 Ry     beta= 0.70
     Davidson diagonalization with overlap
     ethr =  5.47E-09,  avg # of iterations =  1.4

     negative rho (up, down):  4.753E-04 0.000E+00

     total cpu time spent up to now is       91.4 secs

     total energy              =    -563.52042325 Ry
     Harris-Foulkes estimate   =    -563.52042369 Ry
     estimated scf accuracy    <       0.00000548 Ry

     iteration # 18     ecut=    45.00 Ry     beta= 0.70
     Davidson diagonalization with overlap
     ethr =  3.81E-09,  avg # of iterations =  1.4

     negative rho (up, down):  4.573E-04 0.000E+00

     total cpu time spent up to now is       95.7 secs

     total energy              =    -563.52042255 Ry
     Harris-Foulkes estimate   =    -563.52042345 Ry
     estimated scf accuracy    <       0.00000310 Ry

     iteration # 19     ecut=    45.00 Ry     beta= 0.70
     Davidson diagonalization with overlap
     ethr =  2.15E-09,  avg # of iterations =  3.1

     negative rho (up, down):  4.549E-04 0.000E+00

     total cpu time spent up to now is      100.5 secs

     End of self-consistent calculation

          k = 0.0000 0.0000 0.0000 ( 26243 PWs)   bands (ev):

   -12.2485 -11.7210 -11.6207 -11.6048 -10.9391 -10.7257 -10.6151 -10.5688
   -10.5380 -10.3024 -10.2363 -10.1573 -10.1474  -9.9972  -9.9464  -9.9163
    -3.9652  -3.6505  -3.4374  -3.3450  -3.3221  -3.1662  -3.1140  -3.0997
    -2.6086  -2.3324  -2.2626  -2.2624  -2.2003  -1.7758  -1.6926  -1.6909
    -1.4637  -1.0431  -0.8136  -0.7050  -0.6945  -0.6611  -0.5266  -0.4735
    -0.3314  -0.3081  -0.1356  -0.0719   0.0100   0.0685   0.0988   0.1360
     0.1575   0.2295   0.3125   0.3150   0.4004   0.5086   0.5183   0.6090
     0.8559   0.9159   1.0396   1.0464   1.0969   1.1137   1.1845   1.2320
     1.2546   1.5172   1.5866   1.6394   1.9093   2.0299   2.0834   2.2865
     3.3788   3.7067   3.7277   3.7967   3.8732   4.1966   4.2474   4.2573
     4.2860   4.3595   4.4079   4.4549   4.4667   4.4705

          k = 0.0000 0.1795-0.0129 ( 26334 PWs)   bands (ev):

   -11.9490 -11.4228 -11.3209 -11.2977 -11.1485 -10.8770 -10.6858 -10.5887
   -10.5861 -10.4581 -10.4131 -10.3994 -10.3673 -10.1659 -10.1194 -10.0920
    -3.5744  -3.2357  -2.9322  -2.8332  -2.7505  -2.7365  -2.7253  -2.6503
    -2.3232  -2.2421  -1.8968  -1.8504  -1.8259  -1.8029  -1.7862  -1.7811
    -1.7330  -1.2697  -1.2515  -1.1944  -1.1763  -0.8215  -0.7696  -0.7325
    -0.6744  -0.5268  -0.2269  -0.0697  -0.0403   0.1258   0.1708   0.2084
     0.3110   0.3198   0.3793   0.3948   0.4349   0.4684   0.5814   0.6345
     0.6528   0.7537   0.8418   0.8959   0.9262   0.9351   0.9637   0.9743
     1.0790   1.2426   1.2726   1.2954   1.5259   1.6288   1.6991   1.7558
     3.3348   3.7311   3.7789   3.8262   3.8918   3.9774   3.9830   4.0148
     4.1764   4.2171   4.2373   4.2901   4.3853   4.4068

          k = 0.2000 0.0123-0.0124 ( 26252 PWs)   bands (ev):

   -11.8539 -11.3306 -11.2318 -11.2112 -10.7624 -10.5597 -10.3985 -10.3420
   -10.3175 -10.1067 -10.0584  -9.9750  -9.9666  -9.8229  -9.7728  -9.7498
    -3.3984  -3.2297  -3.0708  -2.8912  -2.7755  -2.7541  -2.7161  -2.6680
    -2.6520  -2.5889  -2.5104  -2.4925  -2.1069  -1.8249  -1.6991  -1.5989
    -1.5858  -1.2836  -1.1130  -0.9968  -0.9827  -0.8724  -0.8121  -0.7840
    -0.7104  -0.6225  -0.6173  -0.5893  -0.5269  -0.5246  -0.5136  -0.4008
    -0.3273  -0.3099  -0.1827  -0.1790  -0.1687  -0.1050   0.0008   0.0284
     0.0327   0.1253   0.1337   0.1743   1.0489   1.2082   1.2126   1.2581
     1.3566   1.7344   1.7813   1.7964   1.8346   1.8652   1.8736   1.8892
     3.0495   3.6100   3.6514   3.7263   3.7789   3.8754   3.8771   3.9387
     3.9580   4.0507   4.0708   4.1872   4.3234   4.3658

          k = 0.2000 0.1918-0.0253 ( 26259 PWs)   bands (ev):

   -11.5614 -11.0311 -10.9463 -10.9341 -10.9008 -10.6979 -10.4802 -10.3794
   -10.3737 -10.2207 -10.1801 -10.1534 -10.1409 -10.0258  -9.9888  -9.9694
    -3.2802  -3.0212  -2.6546  -2.5439  -2.4997  -2.4681  -2.4614  -2.4441
    -2.3732  -1.9868  -1.9497  -1.8010  -1.7967  -1.7931  -1.6497  -1.5321
    -1.5090  -1.4277  -1.3652  -1.3096  -1.2585  -1.2479  -1.0926  -0.9998
    -0.9506  -0.9323  -0.8925  -0.8693  -0.8464  -0.8277  -0.6339  -0.5929
    -0.5696  -0.3768  -0.3667  -0.3155  -0.3032  -0.0137   0.1105   0.1307
     0.4336   0.5743   0.5787   0.6465   0.8788   1.0167   1.0334   1.0735
     1.1763   1.4282   1.5055   1.5218   1.6188   1.6854   1.6951   1.7089
     3.1090   3.6413   3.6536   3.6728   3.7958   3.8325   3.8414   3.8564
     3.9099   3.9263   4.0239   4.0719   4.1783   4.2523

          k = 0.2000-0.1672 0.0005 ( 26253 PWs)   bands (ev):

   -11.6308 -11.1103 -11.0085 -10.9813 -10.8633 -10.7293 -10.4092 -10.3154
   -10.2813 -10.2638 -10.2400 -10.2180 -10.1439  -9.9374  -9.8740  -9.8535
    -3.3664  -3.0976  -2.7677  -2.6575  -2.6223  -2.5907  -2.5456  -2.4719
    -2.4464  -2.1966  -2.1013  -2.0362  -2.0351  -1.8741  -1.7590  -1.6345
    -1.5851  -1.4950  -1.4751  -1.4469  -1.3760  -1.1690  -1.1418  -1.0384
    -1.0024  -0.8797  -0.8754  -0.8569  -0.7650  -0.5860  -0.3672  -0.2267
    -0.2194  -0.1901  -0.1656  -0.0323  -0.0132   0.3370   0.3803   0.4194
     0.4933   0.6507   0.6792   0.7487   0.8408   0.9277   0.9598   0.9681
     1.0841   1.2906   1.3470   1.3622   1.4245   1.5127   1.5260   1.5391
     3.3761   3.6752   3.7561   3.8263   3.9073   3.9176   3.9621   4.0054
     4.1107   4.1636   4.1695   4.1806   4.2710   4.3408

          k = 0.4000 0.0246-0.0248 ( 26166 PWs)   bands (ev):

   -10.9867 -10.4653 -10.4297 -10.3967 -10.3643 -10.3232  -9.9644  -9.8571
    -9.8492  -9.8346  -9.7881  -9.7800  -9.7597  -9.5931  -9.5602  -9.5550
    -3.4798  -3.4232  -2.9875  -2.8626  -2.8164  -2.8132  -2.7251  -2.6196
    -2.6169  -2.5307  -2.5191  -2.4587  -2.4404  -2.2032  -1.9975  -1.9380
    -1.9038  -1.8331  -1.5860  -1.5700  -1.5132  -1.5041  -1.4800  -1.4424
    -1.4245  -1.4159  -1.2841  -1.1664  -1.1358  -1.1157  -1.0121  -0.9998
    -0.9906  -0.8149  -0.7918  -0.7676  -0.3653  -0.0456   0.0636   0.1392
     0.2082   0.2117   0.2183   0.2536   0.5710   0.8320   0.8702   0.8953
     0.9401   1.2270   1.2374   1.2906   1.8907   1.9286   1.9391   1.9677
     2.9896   3.6436   3.6614   3.7674   3.8094   3.8683   3.8948   4.0689
     4.1828   4.2718   4.4166   4.4336   4.4500   4.5492

          k = 0.4000 0.2041-0.0377 ( 26174 PWs)   bands (ev):

   -10.8430 -10.5574 -10.4167 -10.2928 -10.2144 -10.1272 -10.0838  -9.9938
    -9.9443  -9.8275  -9.8112  -9.7496  -9.7446  -9.7039  -9.6639  -9.6617
    -3.6345  -3.4308  -3.0824  -3.0381  -3.0164  -2.9945  -2.9859  -2.8808
    -2.8555  -2.5370  -2.4981  -2.4255  -2.4043  -2.2836  -2.1540  -2.1192
    -2.0875  -1.8816  -1.8357  -1.7258  -1.6614  -1.6058  -1.5629  -1.5110
    -1.4875  -1.2702  -1.2188  -1.2110  -1.1662  -0.8413  -0.7409  -0.7319
    -0.4599  -0.0670   0.0435   0.1133   0.1263   0.1875   0.2064   0.2345
     0.2920   0.4289   0.5049   0.5150   0.5860   0.6482   0.6537   0.8035
     0.9807   1.4354   1.4885   1.5331   1.5922   1.7873   1.8037   1.8179
     3.0963   3.6722   3.6861   3.7503   3.8524   3.8987   3.9184   3.9494
     4.1605   4.3353   4.3522   4.4281   4.5378   4.5907

          k = 0.4000-0.1549-0.0119 ( 26141 PWs)   bands (ev):

   -10.9241 -10.4708 -10.4436 -10.3975 -10.3017 -10.2536 -10.0077  -9.9100
    -9.8790  -9.8692  -9.8458  -9.8036  -9.7804  -9.6009  -9.5277  -9.5243
    -3.6903  -3.3648  -3.1642  -3.1280  -3.0224  -2.9941  -2.9763  -2.8924
    -2.8676  -2.6426  -2.6071  -2.5923  -2.5097  -2.3560  -2.1701  -2.1019
    -2.0674  -1.9345  -1.7773  -1.7253  -1.6956  -1.6401  -1.6211  -1.5817
    -1.5370  -1.2440  -1.2298  -1.2051  -1.1275  -0.7553  -0.6391  -0.5994
    -0.5806  -0.2124  -0.1213  -0.0861   0.0556   0.2254   0.2853   0.3124
     0.4409   0.5083   0.5391   0.5736   0.7883   0.8861   0.9371   0.9510
     0.9937   1.2766   1.3413   1.3549   1.6037   1.8523   1.8952   1.9020
     3.2502   3.7308   3.7557   3.8167   3.9887   4.0265   4.0426   4.0595
     4.2674   4.3747   4.4583   4.5213   4.5557   4.6545

     the Fermi energy is     2.1238 ev

!    total energy              =    -563.52042253 Ry
     Harris-Foulkes estimate   =    -563.52042311 Ry
     estimated scf accuracy    <       0.00000065 Ry

     The total energy is the sum of the following terms:

     one-electron contribution =   -2835.70401735 Ry
     hartree contribution      =    1477.38291401 Ry
     xc contribution           =    -222.14557698 Ry
     ewald contribution        =    1016.92813634 Ry
     smearing contrib. (-TS)   =       0.01812144 Ry

     convergence has been achieved in  19 iterations

     negative rho (up, down):  4.549E-04 0.000E+00

     Forces acting on atoms (cartesian axes, Ry/au):

     atom    1 type  1   force =    -0.01095658   -0.01925785   -0.05612791
     atom    2 type  1   force =    -0.02404502   -0.02921937   -0.00191691
     atom    3 type  1   force =     0.01204344   -0.02756397    0.01466423
     atom    4 type  1   force =    -0.01215824   -0.02202419   -0.02336863
     atom    5 type  1   force =     0.01370875    0.00781885    0.02141577
     atom    6 type  1   force =    -0.01664719   -0.06409452    0.02161371
     atom    7 type  1   force =     0.02132378    0.02039889    0.01568017
     atom    8 type  1   force =     0.01186441    0.15565417    0.00799757
     atom    9 type  2   force =     0.01478692    0.03219813    0.00333653
     atom   10 type  2   force =     0.02379599   -0.00078729    0.01897341
     atom   11 type  2   force =    -0.01208130    0.02161523    0.06763339
     atom   12 type  2   force =     0.01568590    0.01659561    0.07112572
     atom   13 type  2   force =    -0.00638400   -0.01564816    0.02223571
     atom   14 type  2   force =     0.00825634   -0.01073493   -0.05278339
     atom   15 type  2   force =    -0.00354513   -0.02114642    0.02638313
     atom   16 type  2   force =     0.00127401    0.00368132   -0.03659648
     atom   17 type  2   force =     0.01137087   -0.03392010   -0.00224516
     atom   18 type  2   force =    -0.00331571    0.02483957   -0.01518532
     atom   19 type  2   force =    -0.01470006    0.02627285   -0.02929418
     atom   20 type  2   force =     0.00040970    0.01115145   -0.04819804
     atom   21 type  2   force =    -0.01501743    0.00699942   -0.04576499
     atom   22 type  2   force =    -0.00766602   -0.05949645    0.04969049
     atom   23 type  2   force =    -0.01000250    0.00153363   -0.04073753
     atom   24 type  2   force =     0.00199908   -0.02486588    0.01146871

     Total force =     0.273888     Total SCF correction =     0.001438
 
     init_run     :      3.18s CPU      3.30s WALL (       1 calls)
     electrons    :     94.02s CPU     96.50s WALL (       1 calls)
     forces       :      1.79s CPU      1.86s WALL (       1 calls)

     Called by init_run:
     wfcinit      :      1.76s CPU      1.80s WALL (       1 calls)
     potinit      :      0.39s CPU      0.40s WALL (       1 calls)
     hinit0       :      0.50s CPU      0.51s WALL (       1 calls)

     Called by electrons:
     c_bands      :     66.58s CPU     67.61s WALL (      19 calls)
     sum_band     :     15.51s CPU     16.36s WALL (      19 calls)
     v_of_rho     :      1.14s CPU      1.21s WALL (      20 calls)
     newd         :      4.13s CPU      4.63s WALL (      20 calls)
     mix_rho      :      6.74s CPU      6.79s WALL (      19 calls)

     Called by c_bands:
     init_us_2    :      2.26s CPU      2.28s WALL (     320 calls)
     cegterg      :     60.35s CPU     61.32s WALL (     152 calls)

     Called by sum_band:
     sum_band:bec :      0.13s CPU      0.13s WALL (     152 calls)
     addusdens    :      6.19s CPU      6.79s WALL (      19 calls)

     Called by *egterg:
     h_psi        :     31.57s CPU     32.33s WALL (     612 calls)
     s_psi        :      5.40s CPU      5.41s WALL (     612 calls)
     g_psi        :      0.12s CPU      0.12s WALL (     452 calls)
     cdiaghg      :     13.25s CPU     13.41s WALL (     604 calls)

     Called by h_psi:
     h_psi:pot    :     31.25s CPU     32.00s WALL (     612 calls)
     h_psi:calbec :      5.98s CPU      6.19s WALL (     612 calls)
     vloc_psi     :     19.94s CPU     20.44s WALL (     612 calls)
     add_vuspsi   :      5.32s CPU      5.35s WALL (     612 calls)

     General routines
     calbec       :      8.62s CPU      8.94s WALL (     796 calls)
     fft          :      1.75s CPU      1.82s WALL (     269 calls)
     ffts         :      2.91s CPU      2.93s WALL (    3935 calls)
     fftw         :     22.68s CPU     23.24s WALL (   74238 calls)
     interpolate  :      0.09s CPU      0.10s WALL (      20 calls)
 
     Parallel routines
     fft_scatt_xy :      2.46s CPU      2.52s WALL (   78442 calls)
     fft_scatt_yz :     15.43s CPU     15.82s WALL (   78442 calls)
 
     PWSCF        :   1m39.69s CPU   1m42.44s WALL

 
   This run was terminated on:  10:51: 5  14Oct2021            

=------------------------------------------------------------------------------=
   JOB DONE.
=------------------------------------------------------------------------------=
