
     Program PWSCF v.6.4 starts on 24Dec2021 at 20:16:36 

     This program is part of the open-source Quantum ESPRESSO suite
     for quantum simulation of materials; please cite
         "P. Giannozzi et al., J. Phys.:Condens. Matter 21 395502 (2009);
         "P. Giannozzi et al., J. Phys.:Condens. Matter 29 465901 (2017);
          URL http://www.quantum-espresso.org", 
     in publications or presentations arising from this work. More details at
     http://www.quantum-espresso.org/quote

     Parallel version (MPI), running on    40 processors

     MPI processes distributed on     1 nodes
     R & G space division:  proc/nbgrp/npool/nimage =      40
     Waiting for input...
     Reading input from standard input
Warning: card    &IONS ignored
Warning: card      ION_DYNAMICS = 'BFGS' ignored
Warning: card   / ignored
Warning: card    &CELL ignored
Warning: card      CELL_DYNAMICS = 'BFGS', ignored
Warning: card    / ignored

     Current dimensions of program PWSCF are:
     Max number of different atomic species (ntypx) = 10
     Max number of k-points (npk) =  40000
     Max angular momentum in pseudopotentials (lmaxx) =  3

     Subspace diagonalization in iterative solution of the eigenvalue problem:
     one sub-group per band group will be used
     scalapack distributed-memory algorithm (size of sub-group:  4*  4 procs)

 
     Parallelization info
     --------------------
     sticks:   dense  smooth     PW     G-vecs:    dense   smooth      PW
     Min         248     124     33                18794     6646     937
     Max         249     125     34                18798     6650     943
     Sum        9933    4979   1345               751817   265899   37591
 


     bravais-lattice index     =            0
     lattice parameter (alat)  =      18.4092  a.u.
     unit-cell volume          =    6518.4224 (a.u.)^3
     number of atoms/cell      =           42
     number of atomic types    =            2
     number of electrons       =       252.00
     number of Kohn-Sham states=          151
     kinetic-energy cutoff     =      45.0000  Ry
     charge density cutoff     =     360.0000  Ry
     convergence threshold     =      1.0E-06
     mixing beta               =       0.7000
     number of iterations used =            8  local-TF  mixing
     Exchange-correlation      = SLA PW GGX GGC ( 1  4  2  2 0 0)

     celldm(1)=  18.409195  celldm(2)=   0.000000  celldm(3)=   0.000000
     celldm(4)=   0.000000  celldm(5)=   0.000000  celldm(6)=   0.000000

     crystal axes: (cart. coord. in units of alat)
               a(1) = (   1.000000   0.000000   0.000000 )  
               a(2) = (   0.033066   1.023855   0.000000 )  
               a(3) = (  -0.010191   0.070929   1.020469 )  

     reciprocal axes: (cart. coord. in units 2 pi/alat)
               b(1) = (  1.000000 -0.032296  0.012231 )  
               b(2) = (  0.000000  0.976701 -0.067887 )  
               b(3) = (  0.000000  0.000000  0.979942 )  


     PseudoPot. # 1 for Mo read from file:
     ~/pseudo/Mo.pw91-n-van.UPF
     MD5 check sum: Not computed, couldn't open file
     Pseudo is Ultrasoft + core correction, Zval =  6.0
     Generated by new atomic code, or converted to UPF format
     Using radial grid of  965 points,  3 beta functions with: 
                l(1) =   1
                l(2) =   2
                l(3) =   2
     Q(r) pseudized with  8 coefficients,  rinner =    1.000   1.000   1.000
                                                       1.200   1.200

     PseudoPot. # 2 for S  read from file:
     ~/pseudo/S.pw91-van_ak.UPF
     MD5 check sum: Not computed, couldn't open file
     Pseudo is Ultrasoft, Zval =  6.0
     Generated by new atomic code, or converted to UPF format
     Using radial grid of  811 points,  6 beta functions with: 
                l(1) =   0
                l(2) =   0
                l(3) =   1
                l(4) =   1
                l(5) =   2
                l(6) =   2
     Q(r) pseudized with  8 coefficients,  rinner =    1.100   1.100   1.100
                                                       1.100   1.100

     atomic species   valence    mass     pseudopotential
        Mo             6.00    95.50000     Mo( 1.00)
        S              6.00    32.06500     S ( 1.00)

     No symmetry found



   Cartesian axes

     site n.     atom                  positions (alat units)
         1           Mo  tau(   1) = (   0.6661196   0.8468342   0.3309596  )
         2           Mo  tau(   2) = (   0.8824749   0.6617602   0.3537984  )
         3           Mo  tau(   3) = (   0.8765739   0.8481507   0.1347521  )
         4           Mo  tau(   4) = (   0.6638812   0.6281553   0.1222875  )
         5           Mo  tau(   5) = (   0.6433895   0.4262877   0.9004122  )
         6           Mo  tau(   6) = (   0.8350058   0.1987826   0.8745725  )
         7           Mo  tau(   7) = (   0.8353948   0.4245448   0.6690934  )
         8           Mo  tau(   8) = (   0.6141532   0.2154309   0.6691908  )
         9           Mo  tau(   9) = (   0.4409343   0.6625901   0.9231210  )
        10           Mo  tau(  10) = (   0.4129598   1.0028463   0.6368231  )
        11           Mo  tau(  11) = (   0.0991567   0.6768875   0.5821788  )
        12           Mo  tau(  12) = (   0.1078993   0.4433218   0.4197473  )
        13           Mo  tau(  13) = (   0.3824882   0.1880673   0.4471149  )
        14           Mo  tau(  14) = (   0.4702844   0.4289726   0.1405740  )
        15           S   tau(  15) = (   0.8866698   0.9188743   0.3708680  )
        16           S   tau(  16) = (   0.6392418   0.6209064   0.3718558  )
        17           S   tau(  17) = (   0.6809319   0.6805522   0.9005282  )
        18           S   tau(  18) = (   0.8662926   0.9643793   0.9044314  )
        19           S   tau(  19) = (   0.8645667   0.6756979   0.6178262  )
        20           S   tau(  20) = (   0.6533089   0.9803782   0.6406885  )
        21           S   tau(  21) = (   0.4044293   0.9117615   0.8746762  )
        22           S   tau(  22) = (   0.8985891   0.4342901   0.9075095  )
        23           S   tau(  23) = (   0.5993776   0.1801754   0.9168230  )
        24           S   tau(  24) = (   0.6255992   0.1924608   0.4077859  )
        25           S   tau(  25) = (   0.8635804   0.4220632   0.4209846  )
        26           S   tau(  26) = (   0.0691378   0.1319076   0.9467997  )
        27           S   tau(  27) = (   0.6968761   0.3724227   0.1326490  )
        28           S   tau(  28) = (   0.1834320   0.9170999   0.5917857  )
        29           S   tau(  29) = (   0.6363353   0.8703475   0.0968774  )
        30           S   tau(  30) = (   0.2914813   0.6660080   0.7311325  )
        31           S   tau(  31) = (   0.1386424   0.6703374   0.3541826  )
        32           S   tau(  32) = (   0.4544251   0.9751379   0.4003772  )
        33           S   tau(  33) = (   0.4030075   0.6527291   0.1251222  )
        34           S   tau(  34) = (   0.9177762   0.6180382   0.1167495  )
        35           S   tau(  35) = (   0.3595420   0.4116337   0.3474721  )
        36           S   tau(  36) = (   0.5931710   0.4580534   0.6593944  )
        37           S   tau(  37) = (   0.1551700   0.2078365   0.3536582  )
        38           S   tau(  38) = (   0.0907590   0.9608848   0.0981841  )
        39           S   tau(  39) = (   0.3961620   0.4287327   0.9436315  )
        40           S   tau(  40) = (   0.3568144   0.2055911   0.6753340  )
        41           S   tau(  41) = (   0.1026582   0.4386137   0.6433666  )
        42           S   tau(  42) = (   0.8686222   0.1845924   0.6335435  )

     number of k points=     8  Marzari-Vanderbilt smearing, width (Ry)=  0.0200
                       cart. coord. in units 2pi/alat
        k(    1) = (   0.0000000   0.0000000   0.0000000), wk =   0.2500000
        k(    2) = (   0.0000000   0.0000000  -0.4899710), wk =   0.2500000
        k(    3) = (   0.0000000  -0.4883504   0.0339436), wk =   0.2500000
        k(    4) = (   0.0000000  -0.4883504  -0.4560275), wk =   0.2500000
        k(    5) = (  -0.5000000   0.0161480  -0.0061157), wk =   0.2500000
        k(    6) = (  -0.5000000   0.0161480  -0.4960867), wk =   0.2500000
        k(    7) = (  -0.5000000  -0.4722024   0.0278279), wk =   0.2500000
        k(    8) = (  -0.5000000  -0.4722024  -0.4621431), wk =   0.2500000

     Dense  grid:   751817 G-vectors     FFT dimensions: ( 120, 120, 120)

     Smooth grid:   265899 G-vectors     FFT dimensions: (  80,  81,  81)

     Estimated max dynamical RAM per process >     135.29 MB

     Estimated total dynamical RAM >       5.28 GB

     Initial potential from superposition of free atoms

     starting charge  251.97792, renormalised to  252.00000
     Starting wfcs are  238 randomized atomic wfcs

     total cpu time spent up to now is        8.1 secs

     Self-consistent Calculation

     iteration #  1     ecut=    45.00 Ry     beta= 0.70
     Davidson diagonalization with overlap
     ethr =  1.00E-02,  avg # of iterations =  2.0

     total cpu time spent up to now is       22.2 secs

     total energy              =    -983.39328137 Ry
     Harris-Foulkes estimate   =    -986.57854784 Ry
     estimated scf accuracy    <       8.45392499 Ry

     iteration #  2     ecut=    45.00 Ry     beta= 0.70
     Davidson diagonalization with overlap
     ethr =  3.35E-03,  avg # of iterations =  2.0

     total cpu time spent up to now is       35.2 secs

     total energy              =    -984.68393262 Ry
     Harris-Foulkes estimate   =    -985.32088019 Ry
     estimated scf accuracy    <       3.41489056 Ry

     iteration #  3     ecut=    45.00 Ry     beta= 0.70
     Davidson diagonalization with overlap
     ethr =  1.36E-03,  avg # of iterations =  1.0

     total cpu time spent up to now is       46.7 secs

     total energy              =    -984.98035184 Ry
     Harris-Foulkes estimate   =    -985.04325112 Ry
     estimated scf accuracy    <       0.48192707 Ry

     iteration #  4     ecut=    45.00 Ry     beta= 0.70
     Davidson diagonalization with overlap
     ethr =  1.91E-04,  avg # of iterations =  1.9

     total cpu time spent up to now is       57.6 secs

     total energy              =    -984.98849318 Ry
     Harris-Foulkes estimate   =    -985.02138782 Ry
     estimated scf accuracy    <       0.10039454 Ry

     iteration #  5     ecut=    45.00 Ry     beta= 0.70
     Davidson diagonalization with overlap
     ethr =  3.98E-05,  avg # of iterations =  7.5

     total cpu time spent up to now is       79.5 secs

     total energy              =    -985.01375979 Ry
     Harris-Foulkes estimate   =    -985.01849977 Ry
     estimated scf accuracy    <       0.02287796 Ry

     iteration #  6     ecut=    45.00 Ry     beta= 0.70
     Davidson diagonalization with overlap
     ethr =  9.08E-06,  avg # of iterations =  6.8

     total cpu time spent up to now is       94.3 secs

     total energy              =    -985.01517980 Ry
     Harris-Foulkes estimate   =    -985.01610640 Ry
     estimated scf accuracy    <       0.00766656 Ry

     iteration #  7     ecut=    45.00 Ry     beta= 0.70
     Davidson diagonalization with overlap
     ethr =  3.04E-06,  avg # of iterations =  5.6

     total cpu time spent up to now is      107.8 secs

     total energy              =    -985.01552221 Ry
     Harris-Foulkes estimate   =    -985.01578406 Ry
     estimated scf accuracy    <       0.00167100 Ry

     iteration #  8     ecut=    45.00 Ry     beta= 0.70
     Davidson diagonalization with overlap
     ethr =  6.63E-07,  avg # of iterations =  7.0

     total cpu time spent up to now is      128.7 secs

     total energy              =    -985.01588182 Ry
     Harris-Foulkes estimate   =    -985.01600842 Ry
     estimated scf accuracy    <       0.00124378 Ry

     iteration #  9     ecut=    45.00 Ry     beta= 0.70
     Davidson diagonalization with overlap
     ethr =  4.94E-07,  avg # of iterations =  1.0

     total cpu time spent up to now is      138.8 secs

     total energy              =    -985.01587970 Ry
     Harris-Foulkes estimate   =    -985.01595278 Ry
     estimated scf accuracy    <       0.00043800 Ry

     iteration # 10     ecut=    45.00 Ry     beta= 0.70
     Davidson diagonalization with overlap
     ethr =  1.74E-07,  avg # of iterations =  1.6

     total cpu time spent up to now is      149.3 secs

     total energy              =    -985.01589912 Ry
     Harris-Foulkes estimate   =    -985.01591212 Ry
     estimated scf accuracy    <       0.00006036 Ry

     iteration # 11     ecut=    45.00 Ry     beta= 0.70
     Davidson diagonalization with overlap
     ethr =  2.40E-08,  avg # of iterations =  4.4

     total cpu time spent up to now is      168.6 secs

     total energy              =    -985.01591746 Ry
     Harris-Foulkes estimate   =    -985.01592274 Ry
     estimated scf accuracy    <       0.00003378 Ry

     iteration # 12     ecut=    45.00 Ry     beta= 0.70
     Davidson diagonalization with overlap
     ethr =  1.34E-08,  avg # of iterations =  1.0

     total cpu time spent up to now is      178.7 secs

     total energy              =    -985.01591792 Ry
     Harris-Foulkes estimate   =    -985.01591918 Ry
     estimated scf accuracy    <       0.00000659 Ry

     iteration # 13     ecut=    45.00 Ry     beta= 0.70
     Davidson diagonalization with overlap
     ethr =  2.61E-09,  avg # of iterations =  3.5

     total cpu time spent up to now is      192.8 secs

     total energy              =    -985.01591905 Ry
     Harris-Foulkes estimate   =    -985.01591924 Ry
     estimated scf accuracy    <       0.00000136 Ry

     iteration # 14     ecut=    45.00 Ry     beta= 0.70
     Davidson diagonalization with overlap
     ethr =  5.39E-10,  avg # of iterations =  2.0

     total cpu time spent up to now is      203.6 secs

     End of self-consistent calculation

          k = 0.0000 0.0000 0.0000 ( 33233 PWs)   bands (ev):

    -8.9609  -8.7388  -8.2184  -8.1672  -8.0223  -7.8978  -7.8530  -7.8271
    -7.6837  -7.6801  -7.5646  -7.5180  -7.5024  -7.4215  -7.3793  -7.3669
    -7.2956  -7.2242  -7.2009  -7.0619  -6.9970  -6.5236  -6.3481  -6.2800
    -6.1781  -6.0502  -5.9680  -5.0156  -0.5971  -0.4956  -0.4699  -0.3542
    -0.0508  -0.0184   0.0929   0.0987   0.1959   0.2218   0.2800   0.3275
     0.4162   0.4353   0.4844   0.6219   0.6604   0.7303   0.7880   0.8385
     0.8594   0.9515   0.9561   0.9683   1.0951   1.1400   1.1896   1.2233
     1.2790   1.3405   1.3598   1.4103   1.4884   1.4949   1.5324   1.6171
     1.6757   1.7053   1.7249   1.7582   1.8349   1.8976   1.9066   1.9977
     2.0188   2.0402   2.0878   2.1102   2.1666   2.1915   2.2451   2.2800
     2.3455   2.3969   2.4584   2.5008   2.5230   2.6073   2.6590   2.7592
     2.8485   2.8813   2.9115   2.9621   3.0259   3.1226   3.2241   3.2774
     3.3309   3.4002   3.5196   3.5986   3.6369   3.7078   3.7560   3.8248
     3.8980   4.0777   4.0847   4.1365   4.2032   4.3217   4.5227   4.5358
     4.5709   4.6566   4.7474   4.8761   4.9234   4.9441   5.1249   5.1614
     5.2699   5.3662   5.4715   5.5807   5.6171   5.6822   5.8062   5.8955
     6.0072   6.0123   6.1801   6.2543   6.3612   6.4038   6.5595   6.6095
     6.6508   6.6957   6.7466   6.8241   6.8987   6.9133   6.9464   7.0214
     7.1667   7.2449   7.2972   7.4049   7.4421   7.5168   7.5642

          k = 0.0000 0.0000-0.4900 ( 33252 PWs)   bands (ev):

    -8.9458  -8.6378  -8.4917  -8.0220  -7.9358  -7.9207  -7.9099  -7.8625
    -7.6900  -7.6554  -7.5942  -7.5130  -7.4642  -7.4538  -7.4033  -7.3432
    -7.3108  -7.2023  -7.1523  -7.0793  -6.9934  -6.5214  -6.3464  -6.2886
    -6.1748  -6.0527  -5.9548  -5.0146  -0.5056  -0.4160  -0.3444  -0.2891
    -0.2253  -0.1118  -0.0618   0.0611   0.1923   0.2102   0.3266   0.4069
     0.4109   0.4724   0.5051   0.6227   0.6660   0.7007   0.7122   0.8140
     0.8545   0.8943   0.9784   0.9994   1.0321   1.0974   1.1993   1.2185
     1.2740   1.2836   1.3298   1.3533   1.3963   1.5190   1.5414   1.6326
     1.6491   1.6830   1.7392   1.7874   1.8506   1.9173   1.9469   2.0069
     2.0390   2.0551   2.0912   2.1008   2.1356   2.1985   2.2809   2.2841
     2.3458   2.4203   2.4560   2.5150   2.5589   2.6135   2.7243   2.8113
     2.8354   2.8605   2.9697   2.9993   3.0243   3.1453   3.2081   3.2861
     3.3519   3.4272   3.4746   3.5733   3.6381   3.7391   3.8216   3.8478
     3.8858   3.9601   4.1437   4.1987   4.3048   4.3156   4.3647   4.4902
     4.6135   4.6302   4.8316   4.8815   4.9470   5.0073   5.1442   5.1957
     5.2685   5.4038   5.4306   5.4930   5.6099   5.6604   5.7156   5.8545
     5.9747   6.0650   6.1357   6.1399   6.2882   6.4602   6.5280   6.6247
     6.6362   6.6568   6.7667   6.8435   6.8826   6.9601   7.0936   7.1090
     7.1588   7.2788   7.2845   7.3868   7.4458   7.5281   7.5715

          k = 0.0000-0.4884 0.0339 ( 33232 PWs)   bands (ev):

    -8.9399  -8.7380  -8.2593  -8.1459  -8.0079  -7.9220  -7.8811  -7.8212
    -7.7506  -7.6376  -7.5446  -7.5315  -7.4725  -7.4382  -7.3967  -7.3305
    -7.2926  -7.2293  -7.1823  -7.0656  -7.0072  -6.5127  -6.3492  -6.2913
    -6.1656  -6.0520  -5.9581  -5.0152  -0.4867  -0.4659  -0.4149  -0.3199
    -0.0635   0.0029   0.0737   0.0908   0.1930   0.2356   0.2694   0.3775
     0.4009   0.4287   0.5150   0.5466   0.6060   0.6330   0.7202   0.7497
     0.8106   0.9269   0.9684   0.9999   1.0384   1.1259   1.1734   1.2356
     1.2510   1.3121   1.3507   1.3762   1.4259   1.5124   1.5527   1.5590
     1.6088   1.6646   1.6802   1.7886   1.8263   1.8452   1.9382   1.9725
     2.0251   2.0936   2.1594   2.1719   2.2153   2.2460   2.3172   2.3316
     2.4132   2.4643   2.4794   2.4976   2.5349   2.5908   2.6309   2.6638
     2.8398   2.9277   2.9833   2.9983   3.0268   3.1370   3.2116   3.2327
     3.3153   3.3817   3.5397   3.6066   3.6791   3.7039   3.8229   3.9205
     3.9718   4.0178   4.0300   4.1608   4.1889   4.2412   4.3858   4.4624
     4.6341   4.7051   4.8265   4.8662   4.9296   5.0759   5.1407   5.1943
     5.2956   5.3897   5.4710   5.4894   5.5584   5.6809   5.7400   5.8753
     5.9475   6.1425   6.2328   6.2504   6.2850   6.4117   6.4628   6.5782
     6.5884   6.6664   6.7293   6.8187   6.8940   6.9562   7.0483   7.1330
     7.1421   7.2508   7.3122   7.3944   7.4617   7.4690   7.5347

          k = 0.0000-0.4884-0.4560 ( 33254 PWs)   bands (ev):

    -8.9412  -8.6177  -8.4607  -8.1012  -7.9912  -7.9214  -7.9081  -7.8529
    -7.6608  -7.6297  -7.6167  -7.5432  -7.4688  -7.4489  -7.3609  -7.3246
    -7.3136  -7.2064  -7.1554  -7.0752  -6.9948  -6.5142  -6.3494  -6.2807
    -6.1716  -6.0505  -5.9531  -5.0154  -0.4895  -0.4176  -0.2765  -0.1907
    -0.1340  -0.0593  -0.0292   0.0117   0.2094   0.2999   0.3302   0.3643
     0.3913   0.4202   0.4883   0.5448   0.6339   0.6512   0.7375   0.7441
     0.7703   0.8439   0.9092   0.9795   1.0056   1.0830   1.1172   1.2021
     1.2122   1.2733   1.3240   1.3422   1.3635   1.4736   1.5297   1.5578
     1.6230   1.6570   1.7552   1.7945   1.8095   1.8979   1.9382   1.9776
     2.0802   2.1140   2.1326   2.1695   2.1890   2.2377   2.2893   2.3463
     2.3927   2.4723   2.4866   2.5237   2.6277   2.7217   2.7548   2.7912
     2.8324   2.8704   2.9213   2.9699   3.0376   3.0961   3.1658   3.3034
     3.3633   3.4141   3.5203   3.6504   3.7110   3.7531   3.8388   3.8820
     3.9544   3.9895   4.0674   4.1425   4.2085   4.2721   4.4051   4.4422
     4.6129   4.6748   4.7748   4.9217   5.0303   5.0657   5.1547   5.2076
     5.3383   5.3689   5.5102   5.5483   5.5925   5.6186   5.7121   5.7553
     5.9210   5.9882   6.1124   6.1718   6.3261   6.4003   6.4156   6.6223
     6.6563   6.6844   6.7911   6.8281   6.9467   6.9815   7.0362   7.1298
     7.2147   7.2650   7.2862   7.3683   7.4576   7.4633   7.5147

          k =-0.5000 0.0161-0.0061 ( 33204 PWs)   bands (ev):

    -8.9476  -8.6704  -8.4061  -8.1148  -7.9896  -7.9572  -7.8466  -7.7513
    -7.7237  -7.6543  -7.5776  -7.5214  -7.4662  -7.4154  -7.3782  -7.3623
    -7.3339  -7.2195  -7.1804  -7.1047  -6.9715  -6.5283  -6.3415  -6.2702
    -6.1795  -6.0405  -5.9740  -5.0155  -0.5581  -0.4296  -0.3954  -0.2623
    -0.0440  -0.0356   0.0187   0.1479   0.2033   0.2226   0.2656   0.3111
     0.3968   0.4605   0.5204   0.5645   0.5916   0.7361   0.7530   0.7775
     0.8658   0.8872   0.9488   0.9935   1.0521   1.1078   1.1502   1.2066
     1.2501   1.2772   1.3401   1.4158   1.5066   1.5245   1.5606   1.6342
     1.6590   1.7097   1.7494   1.7573   1.8187   1.8523   1.9067   1.9559
     1.9800   2.0423   2.0708   2.1413   2.1884   2.2102   2.2571   2.2672
     2.3094   2.4007   2.5295   2.5365   2.5588   2.5949   2.6638   2.7563
     2.7751   2.8216   2.9085   2.9623   3.0735   3.1549   3.1866   3.2503
     3.3815   3.4460   3.4861   3.5237   3.6070   3.6431   3.7135   3.9020
     3.9756   4.0612   4.1214   4.2295   4.2982   4.3661   4.4855   4.5443
     4.5844   4.7489   4.8335   4.8779   4.9029   4.9385   5.0428   5.1545
     5.3213   5.4249   5.5535   5.5617   5.5983   5.7003   5.7099   5.9121
     5.9394   6.0130   6.0819   6.1803   6.3079   6.4761   6.4963   6.5772
     6.5985   6.6385   6.7644   6.8387   6.8484   6.8934   6.9867   7.1013
     7.1816   7.2573   7.3544   7.4420   7.4982   7.5396   7.5697

          k =-0.5000 0.0161-0.4961 ( 33230 PWs)   bands (ev):

    -8.9403  -8.5770  -8.4514  -8.2398  -8.0594  -7.8728  -7.8479  -7.7555
    -7.7024  -7.6544  -7.5706  -7.5196  -7.4716  -7.4303  -7.3899  -7.3439
    -7.3364  -7.2050  -7.1449  -7.0824  -6.9978  -6.5249  -6.3423  -6.2782
    -6.1752  -6.0430  -5.9586  -5.0151  -0.4204  -0.3847  -0.2995  -0.2456
    -0.1540  -0.0600   0.0295   0.0959   0.1154   0.2360   0.2709   0.3765
     0.4013   0.4309   0.4949   0.5085   0.5425   0.6254   0.6733   0.7287
     0.7965   0.8781   0.9340   0.9990   1.0698   1.0972   1.1825   1.2358
     1.2646   1.3610   1.3882   1.4118   1.4878   1.5051   1.5759   1.5826
     1.6181   1.6488   1.7078   1.7527   1.8338   1.9203   1.9431   1.9607
     2.0166   2.0261   2.0769   2.1104   2.1180   2.1965   2.2174   2.2981
     2.3699   2.4206   2.5196   2.5755   2.6379   2.7067   2.7357   2.8083
     2.8456   2.8634   2.9316   2.9570   3.0511   3.1075   3.1293   3.2343
     3.2935   3.3592   3.4962   3.5200   3.6874   3.7230   3.8221   3.8645
     3.9796   4.0497   4.1755   4.2210   4.3199   4.3468   4.4489   4.5428
     4.6078   4.6583   4.8094   4.8955   5.0073   5.0425   5.0583   5.1323
     5.1833   5.3494   5.5105   5.5541   5.6540   5.7011   5.7624   5.8554
     5.9610   6.0432   6.0797   6.2178   6.2944   6.3904   6.5107   6.5454
     6.6634   6.6802   6.7509   6.7783   6.8108   6.9308   6.9699   7.0163
     7.1709   7.2781   7.3112   7.4243   7.4338   7.5230   7.5505

          k =-0.5000-0.4722 0.0278 ( 33222 PWs)   bands (ev):

    -8.9362  -8.6584  -8.3752  -8.2099  -7.9863  -7.9308  -7.8369  -7.7645
    -7.7355  -7.6348  -7.5849  -7.5322  -7.4836  -7.4374  -7.3971  -7.3459
    -7.3197  -7.2165  -7.1636  -7.0989  -6.9535  -6.5112  -6.3507  -6.2789
    -6.1716  -6.0431  -5.9614  -5.0151  -0.4716  -0.3860  -0.3663  -0.2427
    -0.1445  -0.0215   0.0189   0.1652   0.1721   0.2630   0.2883   0.3672
     0.4209   0.4903   0.5241   0.5646   0.5873   0.6785   0.7090   0.7414
     0.8156   0.8562   0.8812   0.9426   0.9814   1.0251   1.0988   1.1757
     1.2721   1.3385   1.3795   1.4637   1.4911   1.5228   1.5447   1.6108
     1.6219   1.6565   1.7355   1.7916   1.8141   1.8360   1.8928   1.9127
     2.0117   2.0799   2.0976   2.1535   2.1894   2.2084   2.2412   2.3090
     2.3638   2.4165   2.4369   2.4732   2.5372   2.5994   2.6731   2.7492
     2.8078   2.8540   2.9947   3.0024   3.0563   3.1405   3.2554   3.2789
     3.3826   3.3958   3.4966   3.5471   3.6326   3.6695   3.8484   3.8771
     3.9542   4.0674   4.1562   4.1632   4.2863   4.3554   4.4558   4.5055
     4.5814   4.7832   4.8390   4.9101   4.9297   5.0986   5.1580   5.2022
     5.2703   5.3509   5.4375   5.5044   5.5386   5.6717   5.7490   5.9051
     5.9190   6.0934   6.1727   6.2779   6.3325   6.4091   6.4901   6.4991
     6.5590   6.6496   6.7268   6.7372   6.8869   6.9064   7.0420   7.1016
     7.2237   7.2613   7.3414   7.3698   7.4838   7.5284   7.5322

          k =-0.5000-0.4722-0.4621 ( 33272 PWs)   bands (ev):

    -8.9374  -8.5628  -8.4243  -8.2193  -8.0559  -7.9467  -7.9185  -7.7705
    -7.6703  -7.6138  -7.6016  -7.5492  -7.4684  -7.4390  -7.3691  -7.3625
    -7.3130  -7.2067  -7.1238  -7.0763  -6.9671  -6.5126  -6.3520  -6.2691
    -6.1773  -6.0449  -5.9545  -5.0161  -0.4148  -0.3169  -0.2885  -0.1784
    -0.1199  -0.0625   0.0129   0.1145   0.1588   0.1909   0.2975   0.3587
     0.3895   0.4699   0.4940   0.5291   0.5613   0.5897   0.6486   0.7085
     0.8380   0.8691   0.8969   0.9537   0.9781   1.0764   1.1237   1.1660
     1.1959   1.2728   1.3427   1.3951   1.4424   1.4860   1.5256   1.5709
     1.6225   1.6427   1.7242   1.7961   1.8174   1.8591   1.9268   1.9617
     1.9921   2.0684   2.1080   2.1460   2.1898   2.1938   2.2891   2.3425
     2.4246   2.4376   2.5318   2.5555   2.5809   2.6370   2.7295   2.7562
     2.8351   2.9177   2.9456   2.9991   3.0334   3.1280   3.1846   3.2457
     3.3976   3.4311   3.4514   3.6377   3.7012   3.7821   3.8302   3.9080
     3.9420   4.0068   4.1008   4.1934   4.2523   4.3656   4.3951   4.5851
     4.6651   4.7134   4.7856   4.8912   5.0552   5.0891   5.1143   5.1956
     5.2881   5.3410   5.4620   5.4934   5.6246   5.6572   5.7327   5.8137
     5.9780   6.0768   6.1384   6.2414   6.3096   6.4067   6.4771   6.5078
     6.5412   6.6405   6.7244   6.7637   6.7907   6.9528   7.0331   7.0755
     7.1274   7.2019   7.3330   7.4068   7.4506   7.4869   7.5539

     the Fermi energy is     5.7263 ev

!    total energy              =    -985.01591888 Ry
     Harris-Foulkes estimate   =    -985.01591919 Ry
     estimated scf accuracy    <       0.00000041 Ry

     The total energy is the sum of the following terms:

     one-electron contribution =    -196.99460155 Ry
     hartree contribution      =     231.89193596 Ry
     xc contribution           =    -389.75204233 Ry
     ewald contribution        =    -630.16074337 Ry
     smearing contrib. (-TS)   =      -0.00046760 Ry

     convergence has been achieved in  14 iterations

     Forces acting on atoms (cartesian axes, Ry/au):

     atom    1 type  1   force =    -0.05545654    0.08422247    0.02447529
     atom    2 type  1   force =     0.05693977    0.01417074    0.05148155
     atom    3 type  1   force =     0.01140179    0.05344332   -0.06140690
     atom    4 type  1   force =    -0.00229213    0.01694051    0.05756933
     atom    5 type  1   force =     0.01907965    0.00773897    0.00057260
     atom    6 type  1   force =     0.02372048   -0.02970635   -0.03542250
     atom    7 type  1   force =    -0.00172182   -0.03394189    0.04463125
     atom    8 type  1   force =     0.02654058   -0.04054399   -0.03933485
     atom    9 type  1   force =     0.03796043    0.04357791   -0.03516562
     atom   10 type  1   force =    -0.01758393   -0.09846204    0.05531978
     atom   11 type  1   force =     0.03337939    0.05155250    0.07433166
     atom   12 type  1   force =    -0.00932621   -0.03789732   -0.09734031
     atom   13 type  1   force =     0.03346367   -0.01142251   -0.08554337
     atom   14 type  1   force =    -0.00415884   -0.05167756   -0.01182134
     atom   15 type  2   force =     0.02369140   -0.01830963    0.00433456
     atom   16 type  2   force =    -0.02497709   -0.03369009    0.02391310
     atom   17 type  2   force =    -0.02815941    0.00302953   -0.04027779
     atom   18 type  2   force =    -0.01322918    0.01509119   -0.00246164
     atom   19 type  2   force =    -0.00458583    0.01182854   -0.00074998
     atom   20 type  2   force =     0.00373314   -0.02070002    0.00003241
     atom   21 type  2   force =    -0.00035577    0.00497143   -0.01659514
     atom   22 type  2   force =    -0.01387487   -0.00827510   -0.00487075
     atom   23 type  2   force =     0.00589484    0.00190409   -0.00255264
     atom   24 type  2   force =    -0.02883212    0.01323113    0.02216152
     atom   25 type  2   force =     0.00909728   -0.03753878   -0.04177711
     atom   26 type  2   force =    -0.00597425    0.00054292    0.01063734
     atom   27 type  2   force =     0.01798296    0.00397087    0.01364624
     atom   28 type  2   force =     0.00991922   -0.00524685    0.00491984
     atom   29 type  2   force =     0.00204169    0.04444733   -0.01949302
     atom   30 type  2   force =     0.00043139   -0.00643971   -0.00165256
     atom   31 type  2   force =     0.01133263    0.03070924   -0.05506139
     atom   32 type  2   force =    -0.01434966   -0.01129217   -0.03230483
     atom   33 type  2   force =     0.00402191    0.04784263    0.02822018
     atom   34 type  2   force =     0.00948052   -0.02815335   -0.02707951
     atom   35 type  2   force =    -0.01440994    0.04170357    0.00282047
     atom   36 type  2   force =    -0.00051732    0.02291700   -0.01418346
     atom   37 type  2   force =    -0.00977444   -0.02222607    0.00718948
     atom   38 type  2   force =     0.00678105    0.01714997    0.01829623
     atom   39 type  2   force =    -0.05585456   -0.06378328   -0.01366367
     atom   40 type  2   force =    -0.01863015    0.05610762    0.06654534
     atom   41 type  2   force =     0.00703975   -0.01498050    0.09836667
     atom   42 type  2   force =    -0.02986950   -0.01280625    0.02929357

     Total force =     0.378625     Total SCF correction =     0.001089
 
     init_run     :      7.02s CPU      7.30s WALL (       1 calls)
     electrons    :    191.04s CPU    195.56s WALL (       1 calls)
     forces       :      4.46s CPU      4.66s WALL (       1 calls)

     Called by init_run:
     wfcinit      :      5.02s CPU      5.17s WALL (       1 calls)
     potinit      :      0.51s CPU      0.52s WALL (       1 calls)
     hinit0       :      0.70s CPU      0.73s WALL (       1 calls)

     Called by electrons:
     c_bands      :    159.03s CPU    161.49s WALL (      14 calls)
     sum_band     :     25.58s CPU     27.09s WALL (      14 calls)
     v_of_rho     :      1.16s CPU      1.23s WALL (      15 calls)
     newd         :      4.25s CPU      4.74s WALL (      15 calls)
     mix_rho      :      1.17s CPU      1.23s WALL (      14 calls)

     Called by c_bands:
     init_us_2    :      3.99s CPU      4.04s WALL (     240 calls)
     cegterg      :    148.63s CPU    151.05s WALL (     112 calls)

     Called by sum_band:
     sum_band:bec :      0.25s CPU      0.25s WALL (     112 calls)
     addusdens    :      6.87s CPU      7.84s WALL (      14 calls)

     Called by *egterg:
     h_psi        :     76.93s CPU     78.51s WALL (     498 calls)
     s_psi        :     15.36s CPU     15.40s WALL (     498 calls)
     g_psi        :      0.41s CPU      0.42s WALL (     378 calls)
     cdiaghg      :     30.60s CPU     31.28s WALL (     490 calls)

     Called by h_psi:
     h_psi:pot    :     75.92s CPU     77.49s WALL (     498 calls)
     h_psi:calbec :     17.97s CPU     18.70s WALL (     498 calls)
     vloc_psi     :     42.65s CPU     43.46s WALL (     498 calls)
     add_vuspsi   :     15.29s CPU     15.33s WALL (     498 calls)

     General routines
     calbec       :     26.38s CPU     27.50s WALL (     642 calls)
     fft          :      1.19s CPU      1.26s WALL (     204 calls)
     ffts         :      0.51s CPU      0.56s WALL (     410 calls)
     fftw         :     48.02s CPU     48.92s WALL (  102218 calls)
     interpolate  :      0.10s CPU      0.11s WALL (      15 calls)
 
     Parallel routines
     fft_scatt_xy :      4.48s CPU      4.57s WALL (  102832 calls)
     fft_scatt_yz :     21.04s CPU     21.57s WALL (  102832 calls)
 
     PWSCF        :   3m23.28s CPU   3m28.37s WALL

 
   This run was terminated on:  20:20: 4  24Dec2021            

=------------------------------------------------------------------------------=
   JOB DONE.
=------------------------------------------------------------------------------=
