
     Program PWSCF v.6.4 starts on  8Sep2021 at 11:11: 5 

     This program is part of the open-source Quantum ESPRESSO suite
     for quantum simulation of materials; please cite
         "P. Giannozzi et al., J. Phys.:Condens. Matter 21 395502 (2009);
         "P. Giannozzi et al., J. Phys.:Condens. Matter 29 465901 (2017);
          URL http://www.quantum-espresso.org", 
     in publications or presentations arising from this work. More details at
     http://www.quantum-espresso.org/quote

     Parallel version (MPI), running on    40 processors

     MPI processes distributed on     1 nodes
     R & G space division:  proc/nbgrp/npool/nimage =      40
     Waiting for input...
     Reading input from standard input
Warning: card    &IONS ignored
Warning: card      ION_DYNAMICS = 'BFGS' ignored
Warning: card   / ignored
Warning: card    &CELL ignored
Warning: card      CELL_DYNAMICS = 'BFGS', ignored
Warning: card    / ignored

     Current dimensions of program PWSCF are:
     Max number of different atomic species (ntypx) = 10
     Max number of k-points (npk) =  40000
     Max angular momentum in pseudopotentials (lmaxx) =  3

     Subspace diagonalization in iterative solution of the eigenvalue problem:
     one sub-group per band group will be used
     scalapack distributed-memory algorithm (size of sub-group:  4*  4 procs)

 
     Parallelization info
     --------------------
     sticks:   dense  smooth     PW     G-vecs:    dense   smooth      PW
     Min          98      49     13                18917     6688     961
     Max          99      50     14                18946     6698     979
     Sum        3959    1979    549               757465   267681   38849
 


     bravais-lattice index     =            0
     lattice parameter (alat)  =      13.0774  a.u.
     unit-cell volume          =    6566.2136 (a.u.)^3
     number of atoms/cell      =           24
     number of atomic types    =            2
     number of electrons       =       144.00
     number of Kohn-Sham states=           86
     kinetic-energy cutoff     =      45.0000  Ry
     charge density cutoff     =     360.0000  Ry
     convergence threshold     =      1.0E-06
     mixing beta               =       0.7000
     number of iterations used =            8  local-TF  mixing
     Exchange-correlation      = SLA PW GGX GGC ( 1  4  2  2 0 0)

     celldm(1)=  13.077397  celldm(2)=   0.000000  celldm(3)=   0.000000
     celldm(4)=   0.000000  celldm(5)=   0.000000  celldm(6)=   0.000000

     crystal axes: (cart. coord. in units of alat)
               a(1) = (   0.999770  -0.011540  -0.018087 )  
               a(2) = (  -0.452951   0.813963  -0.002244 )  
               a(3) = (  -0.305303  -0.641489   3.645006 )  

     reciprocal axes: (cart. coord. in units 2 pi/alat)
               b(1) = (  1.010046  0.562572  0.183608 )  
               b(2) = (  0.018279  1.239335  0.219643 )  
               b(3) = (  0.005023  0.003555  0.275394 )  


     PseudoPot. # 1 for Mo read from file:
     ~/pseudo/Mo.pw91-n-van.UPF
     MD5 check sum: Not computed, couldn't open file
     Pseudo is Ultrasoft + core correction, Zval =  6.0
     Generated by new atomic code, or converted to UPF format
     Using radial grid of  965 points,  3 beta functions with: 
                l(1) =   1
                l(2) =   2
                l(3) =   2
     Q(r) pseudized with  8 coefficients,  rinner =    1.000   1.000   1.000
                                                       1.200   1.200

     PseudoPot. # 2 for S  read from file:
     ~/pseudo/S.pw91-van_ak.UPF
     MD5 check sum: Not computed, couldn't open file
     Pseudo is Ultrasoft, Zval =  6.0
     Generated by new atomic code, or converted to UPF format
     Using radial grid of  811 points,  6 beta functions with: 
                l(1) =   0
                l(2) =   0
                l(3) =   1
                l(4) =   1
                l(5) =   2
                l(6) =   2
     Q(r) pseudized with  8 coefficients,  rinner =    1.100   1.100   1.100
                                                       1.100   1.100

     atomic species   valence    mass     pseudopotential
        Mo             6.00    95.50000     Mo( 1.00)
        S              6.00    32.06500     S ( 1.00)

     No symmetry found



   Cartesian axes

     site n.     atom                  positions (alat units)
         1           Mo  tau(   1) = (   0.2164326   0.0329394   0.6061425  )
         2           Mo  tau(   2) = (   0.0411950   0.5545449   0.4983320  )
         3           Mo  tau(   3) = (   0.7779250   0.0703358   0.5319679  )
         4           Mo  tau(   4) = (   0.5452240   0.3673179   0.6524001  )
         5           Mo  tau(   5) = (  -0.2396709  -0.2556151   3.0807353  )
         6           Mo  tau(   6) = (  -0.4809063   0.1825187   3.0744098  )
         7           Mo  tau(   7) = (   0.3159109  -0.2251915   3.0581050  )
         8           Mo  tau(   8) = (   0.0844513   0.1969147   3.0552984  )
         9           S   tau(   9) = (  -0.0427141  -0.0928785   0.7828949  )
        10           S   tau(  10) = (  -0.1603260   0.4899462   0.7937527  )
        11           S   tau(  11) = (   0.5283980   0.0548419   0.7916143  )
        12           S   tau(  12) = (   0.2242227   0.3490437   0.7635787  )
        13           S   tau(  13) = (  -0.2358465  -0.5045119   3.3282713  )
        14           S   tau(  14) = (  -0.4537762  -0.0865643   3.3040216  )
        15           S   tau(  15) = (   0.2643706  -0.5033860   3.2681088  )
        16           S   tau(  16) = (   0.0386779  -0.0993248   3.2559026  )
        17           S   tau(  17) = (   0.0212923   0.2330560   0.3561390  )
        18           S   tau(  18) = (  -0.1879873   0.7060643   0.3004950  )
        19           S   tau(  19) = (   0.5591527   0.3018316   0.3331889  )
        20           S   tau(  20) = (   0.2703076   0.6679871   0.2782232  )
        21           S   tau(  21) = (   0.0334251  -0.3588681   2.8581822  )
        22           S   tau(  22) = (  -0.1932438   0.0493531   2.8791446  )
        23           S   tau(  23) = (   0.5374380  -0.3650539   2.8172726  )
        24           S   tau(  24) = (   0.3047343   0.0391197   2.8219433  )

     number of k points=     5  Marzari-Vanderbilt smearing, width (Ry)=  0.0200
                       cart. coord. in units 2pi/alat
        k(    1) = (   0.0000000   0.0000000   0.0000000), wk =   0.2222222
        k(    2) = (   0.0060931   0.4131116   0.0732144), wk =   0.4444444
        k(    3) = (   0.3366819   0.1875240   0.0612028), wk =   0.4444444
        k(    4) = (   0.3427750   0.6006356   0.1344171), wk =   0.4444444
        k(    5) = (   0.3305888  -0.2255875  -0.0120116), wk =   0.4444444

     Dense  grid:   757465 G-vectors     FFT dimensions: (  80,  75, 300)

     Smooth grid:   267681 G-vectors     FFT dimensions: (  60,  54, 216)

     Estimated max dynamical RAM per process >     103.77 MB

     Estimated total dynamical RAM >       4.05 GB

     Initial potential from superposition of free atoms

     starting charge  143.98738, renormalised to  144.00000

     negative rho (up, down):  7.657E-04 0.000E+00
     Starting wfcs are  136 randomized atomic wfcs

     total cpu time spent up to now is        4.8 secs

     Self-consistent Calculation

     iteration #  1     ecut=    45.00 Ry     beta= 0.70
     Davidson diagonalization with overlap
     ethr =  1.00E-02,  avg # of iterations =  2.0

     negative rho (up, down):  6.910E-05 0.000E+00

     total cpu time spent up to now is       10.0 secs

     total energy              =    -561.92398892 Ry
     Harris-Foulkes estimate   =    -563.97497947 Ry
     estimated scf accuracy    <       6.47185016 Ry

     iteration #  2     ecut=    45.00 Ry     beta= 0.70
     Davidson diagonalization with overlap
     ethr =  4.49E-03,  avg # of iterations =  2.0

     negative rho (up, down):  8.781E-06 0.000E+00

     total cpu time spent up to now is       14.9 secs

     total energy              =    -562.79964335 Ry
     Harris-Foulkes estimate   =    -563.14494005 Ry
     estimated scf accuracy    <       1.59822220 Ry

     iteration #  3     ecut=    45.00 Ry     beta= 0.70
     Davidson diagonalization with overlap
     ethr =  1.11E-03,  avg # of iterations =  2.0

     negative rho (up, down):  4.844E-06 0.000E+00

     total cpu time spent up to now is       19.6 secs

     total energy              =    -562.98782668 Ry
     Harris-Foulkes estimate   =    -563.01737731 Ry
     estimated scf accuracy    <       1.10716349 Ry

     iteration #  4     ecut=    45.00 Ry     beta= 0.70
     Davidson diagonalization with overlap
     ethr =  7.69E-04,  avg # of iterations =  1.0

     negative rho (up, down):  2.098E-07 0.000E+00

     total cpu time spent up to now is       23.4 secs

     total energy              =    -562.96066685 Ry
     Harris-Foulkes estimate   =    -563.00627277 Ry
     estimated scf accuracy    <       0.48330341 Ry

     iteration #  5     ecut=    45.00 Ry     beta= 0.70
     Davidson diagonalization with overlap
     ethr =  3.36E-04,  avg # of iterations =  1.0

     negative rho (up, down):  2.656E-08 0.000E+00

     total cpu time spent up to now is       27.1 secs

     total energy              =    -562.97892811 Ry
     Harris-Foulkes estimate   =    -562.98775204 Ry
     estimated scf accuracy    <       0.06491008 Ry

     iteration #  6     ecut=    45.00 Ry     beta= 0.70
     Davidson diagonalization with overlap
     ethr =  4.51E-05,  avg # of iterations =  7.4

     total cpu time spent up to now is       33.0 secs

     total energy              =    -562.98562349 Ry
     Harris-Foulkes estimate   =    -562.99038105 Ry
     estimated scf accuracy    <       0.03244697 Ry

     iteration #  7     ecut=    45.00 Ry     beta= 0.70
     Davidson diagonalization with overlap
     ethr =  2.25E-05,  avg # of iterations =  2.6

     total cpu time spent up to now is       36.9 secs

     total energy              =    -562.98696881 Ry
     Harris-Foulkes estimate   =    -562.98815786 Ry
     estimated scf accuracy    <       0.01680740 Ry

     iteration #  8     ecut=    45.00 Ry     beta= 0.70
     Davidson diagonalization with overlap
     ethr =  1.17E-05,  avg # of iterations =  2.0

     total cpu time spent up to now is       40.7 secs

     total energy              =    -562.98645331 Ry
     Harris-Foulkes estimate   =    -562.98752846 Ry
     estimated scf accuracy    <       0.00503860 Ry

     iteration #  9     ecut=    45.00 Ry     beta= 0.70
     Davidson diagonalization with overlap
     ethr =  3.50E-06,  avg # of iterations =  8.4

     total cpu time spent up to now is       46.7 secs

     total energy              =    -562.98689160 Ry
     Harris-Foulkes estimate   =    -562.98728527 Ry
     estimated scf accuracy    <       0.00514082 Ry

     iteration # 10     ecut=    45.00 Ry     beta= 0.70
     Davidson diagonalization with overlap
     ethr =  3.50E-06,  avg # of iterations =  1.0

     negative rho (up, down):  1.993E-08 0.000E+00

     total cpu time spent up to now is       50.3 secs

     total energy              =    -562.98686996 Ry
     Harris-Foulkes estimate   =    -562.98700955 Ry
     estimated scf accuracy    <       0.00298272 Ry

     iteration # 11     ecut=    45.00 Ry     beta= 0.70
     Davidson diagonalization with overlap
     ethr =  2.07E-06,  avg # of iterations =  3.2

     negative rho (up, down):  2.107E-07 0.000E+00

     total cpu time spent up to now is       54.9 secs

     total energy              =    -562.98766575 Ry
     Harris-Foulkes estimate   =    -562.98751259 Ry
     estimated scf accuracy    <       0.00129908 Ry

     iteration # 12     ecut=    45.00 Ry     beta= 0.70
     Davidson diagonalization with overlap
     ethr =  9.02E-07,  avg # of iterations =  1.0

     negative rho (up, down):  4.726E-06 0.000E+00

     total cpu time spent up to now is       58.6 secs

     total energy              =    -562.98788253 Ry
     Harris-Foulkes estimate   =    -562.98772777 Ry
     estimated scf accuracy    <       0.00109607 Ry

     iteration # 13     ecut=    45.00 Ry     beta= 0.70
     Davidson diagonalization with overlap
     ethr =  7.61E-07,  avg # of iterations =  3.0

     negative rho (up, down):  1.589E-04 0.000E+00

     total cpu time spent up to now is       63.9 secs

     total energy              =    -562.98807162 Ry
     Harris-Foulkes estimate   =    -562.98807030 Ry
     estimated scf accuracy    <       0.00050817 Ry

     iteration # 14     ecut=    45.00 Ry     beta= 0.70
     Davidson diagonalization with overlap
     ethr =  3.53E-07,  avg # of iterations =  2.0

     negative rho (up, down):  5.204E-04 0.000E+00

     total cpu time spent up to now is       68.5 secs

     total energy              =    -562.98812391 Ry
     Harris-Foulkes estimate   =    -562.98812934 Ry
     estimated scf accuracy    <       0.00022191 Ry

     iteration # 15     ecut=    45.00 Ry     beta= 0.70
     Davidson diagonalization with overlap
     ethr =  1.54E-07,  avg # of iterations =  1.0

     negative rho (up, down):  1.023E-03 0.000E+00

     total cpu time spent up to now is       72.7 secs

     total energy              =    -562.98813241 Ry
     Harris-Foulkes estimate   =    -562.98813158 Ry
     estimated scf accuracy    <       0.00006360 Ry

     iteration # 16     ecut=    45.00 Ry     beta= 0.70
     Davidson diagonalization with overlap
     ethr =  4.42E-08,  avg # of iterations =  1.8

     negative rho (up, down):  1.276E-03 0.000E+00

     total cpu time spent up to now is       77.2 secs

     total energy              =    -562.98813939 Ry
     Harris-Foulkes estimate   =    -562.98813600 Ry
     estimated scf accuracy    <       0.00001301 Ry

     iteration # 17     ecut=    45.00 Ry     beta= 0.70
     Davidson diagonalization with overlap
     ethr =  9.03E-09,  avg # of iterations =  4.2

     negative rho (up, down):  1.067E-03 0.000E+00

     total cpu time spent up to now is       83.1 secs

     total energy              =    -562.98813790 Ry
     Harris-Foulkes estimate   =    -562.98814342 Ry
     estimated scf accuracy    <       0.00001192 Ry

     iteration # 18     ecut=    45.00 Ry     beta= 0.70
     Davidson diagonalization with overlap
     ethr =  8.28E-09,  avg # of iterations =  2.4

     negative rho (up, down):  1.046E-03 0.000E+00

     total cpu time spent up to now is       88.1 secs

     total energy              =    -562.98813831 Ry
     Harris-Foulkes estimate   =    -562.98813886 Ry
     estimated scf accuracy    <       0.00000272 Ry

     iteration # 19     ecut=    45.00 Ry     beta= 0.70
     Davidson diagonalization with overlap
     ethr =  1.89E-09,  avg # of iterations =  2.6

     negative rho (up, down):  1.080E-03 0.000E+00

     total cpu time spent up to now is       91.9 secs

     End of self-consistent calculation

          k = 0.0000 0.0000 0.0000 ( 33425 PWs)   bands (ev):

   -13.6726 -13.0721 -12.5897 -12.4081 -12.1882 -12.1630 -11.8539 -11.7972
   -11.7206 -11.6867 -11.5812 -11.5215 -11.4470 -11.4384 -11.0832 -10.9122
    -5.7430  -5.0616  -5.0337  -4.9585  -4.9459  -4.7515  -4.6591  -4.4181
    -4.3603  -4.2266  -4.0843  -3.6632  -3.6215  -3.5324  -3.4955  -3.4445
    -3.3633  -3.2504  -3.1204  -3.1157  -3.0507  -3.0106  -2.8356  -2.7996
    -2.6710  -2.6471  -2.5876  -2.5571  -2.3658  -2.3152  -2.1092  -2.0960
    -1.9504  -1.7491  -1.7044  -1.3901  -1.3828  -1.2995  -1.2920  -1.1535
    -1.0477  -0.9925  -0.9737  -0.6127  -0.5125  -0.3867  -0.3581  -0.1201
    -0.0284   0.0117   0.0360   0.2519   0.3540   0.4316   0.6333   0.6834
     0.8652   1.0142   1.0520   1.1933   1.7106   1.7472   1.9444   2.0348
     2.1689   2.2191   2.2394   2.3692   2.3960   2.6342

          k = 0.0061 0.4131 0.0732 ( 33435 PWs)   bands (ev):

   -13.3819 -12.7324 -12.7075 -12.4210 -12.2482 -12.0441 -11.9528 -11.9197
   -11.7683 -11.7638 -11.6634 -11.5964 -11.5226 -11.5026 -11.3331 -11.0358
    -5.2184  -4.8459  -4.6620  -4.4584  -4.4427  -4.3652  -4.2984  -4.1700
    -4.1351  -4.0259  -3.9663  -3.8042  -3.7653  -3.7585  -3.5498  -3.4028
    -3.3874  -3.2326  -3.1835  -3.0614  -3.0424  -2.9111  -2.8079  -2.7726
    -2.7492  -2.6873  -2.5400  -2.5274  -2.4185  -2.3712  -2.3398  -2.2580
    -2.1653  -2.0032  -1.9272  -1.6579  -1.5474  -1.5407  -1.4269  -1.3358
    -1.2385  -1.0932  -1.0841  -0.9219  -0.7515  -0.7136  -0.5144  -0.3810
    -0.2255  -0.1456   0.0156   0.1041   0.3514   0.3918   0.6317   0.7061
     0.8131   0.8551   1.0537   1.2526   1.3494   1.4801   1.7699   1.9620
     2.1091   2.1712   2.2552   2.3675   2.5168   2.6396

          k = 0.3367 0.1875 0.0612 ( 33408 PWs)   bands (ev):

   -13.4001 -12.7963 -12.7755 -12.4741 -12.2072 -12.1367 -11.9447 -11.9127
   -11.8185 -11.7123 -11.6134 -11.6075 -11.4620 -11.4240 -11.1590 -10.9999
    -5.3704  -5.0032  -4.6340  -4.6302  -4.5046  -4.4621  -4.4391  -4.2202
    -4.1622  -4.0111  -3.9410  -3.8322  -3.7732  -3.7081  -3.6254  -3.5478
    -3.3489  -3.1487  -3.1226  -3.0988  -3.0364  -2.9905  -2.9253  -2.9048
    -2.6995  -2.5950  -2.5667  -2.5083  -2.3863  -2.3323  -2.2322  -2.1041
    -2.0896  -1.9771  -1.9279  -1.9263  -1.5784  -1.4995  -1.3921  -1.3238
    -1.2164  -1.1188  -0.8883  -0.8798  -0.6970  -0.6251  -0.3775  -0.2826
    -0.1390  -0.1075   0.0009   0.0552   0.1528   0.2510   0.3536   0.7408
     0.9078   0.9619   1.1425   1.3137   1.3199   1.6276   1.9151   2.0417
     2.3080   2.4051   2.5319   2.5391   2.6699   2.7106

          k = 0.3428 0.6006 0.1344 ( 33519 PWs)   bands (ev):

   -13.0405 -12.9127 -12.6361 -12.3216 -12.2362 -12.1447 -12.0897 -11.9903
   -11.9472 -11.8734 -11.7717 -11.6714 -11.4143 -11.3507 -11.3043 -11.0043
    -5.2154  -4.8063  -4.4416  -4.2873  -4.2072  -4.1521  -4.1171  -4.0405
    -3.8961  -3.8618  -3.8393  -3.7331  -3.7014  -3.5970  -3.5377  -3.4651
    -3.3986  -3.3286  -3.2920  -3.2621  -3.1631  -3.0437  -3.0016  -2.9503
    -2.8540  -2.7038  -2.6060  -2.5367  -2.5167  -2.3996  -2.2796  -2.2619
    -2.0873  -1.9917  -1.9067  -1.8939  -1.8609  -1.8060  -1.7176  -1.4526
    -1.3958  -1.3155  -1.0833  -0.8756  -0.8082  -0.5493  -0.4910  -0.4423
    -0.0741  -0.0650   0.0677   0.1212   0.3795   0.4569   0.5474   0.6120
     0.7612   0.8909   1.0331   1.1672   1.2049   1.4995   1.8666   2.0205
     2.0295   2.2450   2.2918   2.4351   2.4783   2.7368

          k = 0.3306-0.2256-0.0120 ( 33516 PWs)   bands (ev):

   -13.3519 -12.7340 -12.6762 -12.5279 -12.2931 -12.0528 -12.0063 -11.9999
   -11.7718 -11.7547 -11.6614 -11.5420 -11.4866 -11.3727 -11.3142 -11.0116
    -5.2186  -4.9292  -4.7290  -4.5424  -4.4587  -4.3906  -4.2280  -4.1864
    -4.1610  -4.0559  -4.0104  -3.7974  -3.7448  -3.7349  -3.5606  -3.4744
    -3.2580  -3.2396  -3.1649  -3.1476  -3.0280  -2.9375  -2.9128  -2.7666
    -2.7408  -2.6840  -2.5608  -2.5196  -2.4532  -2.3908  -2.2307  -2.1796
    -2.0391  -2.0316  -1.9248  -1.8597  -1.7225  -1.6096  -1.4054  -1.3759
    -1.3231  -1.2796  -0.9273  -0.6378  -0.6310  -0.4236  -0.3653  -0.2920
    -0.2045  -0.0664   0.0834   0.1500   0.3581   0.3944   0.6342   0.6691
     0.7868   0.8456   1.0409   1.2818   1.3869   1.5338   1.9303   2.0039
     2.1060   2.1960   2.2462   2.3430   2.3942   2.6972

     the Fermi energy is     0.7504 ev

!    total energy              =    -562.98813908 Ry
     Harris-Foulkes estimate   =    -562.98813860 Ry
     estimated scf accuracy    <       0.00000074 Ry

     The total energy is the sum of the following terms:

     one-electron contribution =   -2892.96916013 Ry
     hartree contribution      =    1497.47942981 Ry
     xc contribution           =    -222.12559334 Ry
     ewald contribution        =    1054.62928706 Ry
     smearing contrib. (-TS)   =      -0.00210249 Ry

     convergence has been achieved in  19 iterations

     negative rho (up, down):  1.080E-03 0.000E+00

     Forces acting on atoms (cartesian axes, Ry/au):

     atom    1 type  1   force =    -0.00400763   -0.00377589    0.00392094
     atom    2 type  1   force =     0.02352040    0.03333659    0.02526614
     atom    3 type  1   force =     0.00020387   -0.01837956   -0.01493357
     atom    4 type  1   force =    -0.01173729    0.00957118   -0.00573278
     atom    5 type  1   force =    -0.01411805    0.01621106    0.00584301
     atom    6 type  1   force =    -0.00207170   -0.01624609    0.01478739
     atom    7 type  1   force =     0.01283641    0.01659415   -0.01448381
     atom    8 type  1   force =     0.02390640   -0.01144468   -0.00190684
     atom    9 type  2   force =    -0.01148509    0.00822507    0.00853045
     atom   10 type  2   force =    -0.01377775   -0.00269686   -0.00953535
     atom   11 type  2   force =     0.00194965   -0.01430235   -0.01957550
     atom   12 type  2   force =    -0.01070606    0.00283748   -0.00625995
     atom   13 type  2   force =     0.00820423    0.00813270   -0.00773379
     atom   14 type  2   force =     0.00324714   -0.00037397    0.01726716
     atom   15 type  2   force =     0.00957773   -0.00007063   -0.00859897
     atom   16 type  2   force =     0.00444435   -0.00028731    0.00186735
     atom   17 type  2   force =     0.01810428    0.00913387    0.00428393
     atom   18 type  2   force =     0.00500752   -0.01849158    0.00939278
     atom   19 type  2   force =    -0.00533175   -0.00631081    0.00995632
     atom   20 type  2   force =     0.00820717    0.00085219   -0.00723790
     atom   21 type  2   force =    -0.01005022   -0.00347006    0.01641029
     atom   22 type  2   force =    -0.00406756   -0.00477675   -0.00049428
     atom   23 type  2   force =    -0.01981848   -0.00132589   -0.01090307
     atom   24 type  2   force =    -0.01203757   -0.00294186   -0.01012995

     Total force =     0.099398     Total SCF correction =     0.001470
 
     init_run     :      3.71s CPU      3.93s WALL (       1 calls)
     electrons    :     83.88s CPU     87.16s WALL (       1 calls)
     forces       :      1.84s CPU      1.90s WALL (       1 calls)

     Called by init_run:
     wfcinit      :      1.60s CPU      1.67s WALL (       1 calls)
     potinit      :      0.52s CPU      0.53s WALL (       1 calls)
     hinit0       :      0.79s CPU      0.85s WALL (       1 calls)

     Called by electrons:
     c_bands      :     50.21s CPU     50.84s WALL (      19 calls)
     sum_band     :     16.63s CPU     18.11s WALL (      19 calls)
     v_of_rho     :      1.93s CPU      2.00s WALL (      20 calls)
     newd         :      5.49s CPU      6.09s WALL (      20 calls)
     mix_rho      :      9.69s CPU     10.25s WALL (      19 calls)

     Called by c_bands:
     init_us_2    :      1.80s CPU      1.81s WALL (     200 calls)
     cegterg      :     45.26s CPU     45.84s WALL (      95 calls)

     Called by sum_band:
     sum_band:bec :      0.07s CPU      0.07s WALL (      95 calls)
     addusdens    :      8.30s CPU      9.63s WALL (      19 calls)

     Called by *egterg:
     h_psi        :     26.99s CPU     27.46s WALL (     353 calls)
     s_psi        :      4.04s CPU      4.04s WALL (     353 calls)
     g_psi        :      0.11s CPU      0.11s WALL (     253 calls)
     cdiaghg      :      7.08s CPU      7.22s WALL (     348 calls)

     Called by h_psi:
     h_psi:pot    :     26.72s CPU     27.17s WALL (     353 calls)
     h_psi:calbec :      4.27s CPU      4.39s WALL (     353 calls)
     vloc_psi     :     18.46s CPU     18.79s WALL (     353 calls)
     add_vuspsi   :      3.98s CPU      3.99s WALL (     353 calls)

     General routines
     calbec       :      6.25s CPU      6.43s WALL (     468 calls)
     fft          :      2.08s CPU      2.22s WALL (     269 calls)
     ffts         :      4.09s CPU      4.56s WALL (    3869 calls)
     fftw         :     21.37s CPU     21.75s WALL (   46024 calls)
     interpolate  :      0.15s CPU      0.16s WALL (      20 calls)
 
     Parallel routines
     fft_scatt_xy :      2.29s CPU      2.35s WALL (   50162 calls)
     fft_scatt_yz :     13.20s CPU     13.81s WALL (   50162 calls)
 
     PWSCF        :   1m30.17s CPU   1m33.94s WALL

 
   This run was terminated on:  11:12:39   8Sep2021            

=------------------------------------------------------------------------------=
   JOB DONE.
=------------------------------------------------------------------------------=
