
     Program PWSCF v.6.4 starts on 14Oct2021 at 11:27:20 

     This program is part of the open-source Quantum ESPRESSO suite
     for quantum simulation of materials; please cite
         "P. Giannozzi et al., J. Phys.:Condens. Matter 21 395502 (2009);
         "P. Giannozzi et al., J. Phys.:Condens. Matter 29 465901 (2017);
          URL http://www.quantum-espresso.org", 
     in publications or presentations arising from this work. More details at
     http://www.quantum-espresso.org/quote

     Parallel version (MPI), running on    40 processors

     MPI processes distributed on     1 nodes
     R & G space division:  proc/nbgrp/npool/nimage =      40
     Waiting for input...
     Reading input from standard input
Warning: card    &IONS ignored
Warning: card      ION_DYNAMICS = 'BFGS' ignored
Warning: card   / ignored
Warning: card    &CELL ignored
Warning: card      CELL_DYNAMICS = 'BFGS', ignored
Warning: card    / ignored

     Current dimensions of program PWSCF are:
     Max number of different atomic species (ntypx) = 10
     Max number of k-points (npk) =  40000
     Max angular momentum in pseudopotentials (lmaxx) =  3

     Subspace diagonalization in iterative solution of the eigenvalue problem:
     one sub-group per band group will be used
     scalapack distributed-memory algorithm (size of sub-group:  4*  4 procs)

 
     Parallelization info
     --------------------
     sticks:   dense  smooth     PW     G-vecs:    dense   smooth      PW
     Min          49      24      7                 5288     1862     278
     Max          50      25      8                 5297     1881     292
     Sum        1983     989    281               211661    74843   11449
 


     bravais-lattice index     =            0
     lattice parameter (alat)  =       5.9911  a.u.
     unit-cell volume          =    1836.0267 (a.u.)^3
     number of atoms/cell      =           12
     number of atomic types    =            2
     number of electrons       =        72.00
     number of Kohn-Sham states=           43
     kinetic-energy cutoff     =      45.0000  Ry
     charge density cutoff     =     360.0000  Ry
     convergence threshold     =      1.0E-06
     mixing beta               =       0.7000
     number of iterations used =            8  local-TF  mixing
     Exchange-correlation      = SLA PW GGX GGC ( 1  4  2  2 0 0)

     celldm(1)=   5.991111  celldm(2)=   0.000000  celldm(3)=   0.000000
     celldm(4)=   0.000000  celldm(5)=   0.000000  celldm(6)=   0.000000

     crystal axes: (cart. coord. in units of alat)
               a(1) = (   1.000000   0.000000   0.000000 )  
               a(2) = (  -0.033090   1.930626   0.000000 )  
               a(3) = (  -0.798682   0.871019   4.422407 )  

     reciprocal axes: (cart. coord. in units 2 pi/alat)
               b(1) = (  1.000000  0.017140  0.177223 )  
               b(2) = (  0.000000  0.517967 -0.102017 )  
               b(3) = (  0.000000  0.000000  0.226121 )  


     PseudoPot. # 1 for Mo read from file:
     ~/pseudo/Mo.pw91-n-van.UPF
     MD5 check sum: Not computed, couldn't open file
     Pseudo is Ultrasoft + core correction, Zval =  6.0
     Generated by new atomic code, or converted to UPF format
     Using radial grid of  965 points,  3 beta functions with: 
                l(1) =   1
                l(2) =   2
                l(3) =   2
     Q(r) pseudized with  8 coefficients,  rinner =    1.000   1.000   1.000
                                                       1.200   1.200

     PseudoPot. # 2 for S  read from file:
     ~/pseudo/S.pw91-van_ak.UPF
     MD5 check sum: Not computed, couldn't open file
     Pseudo is Ultrasoft, Zval =  6.0
     Generated by new atomic code, or converted to UPF format
     Using radial grid of  811 points,  6 beta functions with: 
                l(1) =   0
                l(2) =   0
                l(3) =   1
                l(4) =   1
                l(5) =   2
                l(6) =   2
     Q(r) pseudized with  8 coefficients,  rinner =    1.100   1.100   1.100
                                                       1.100   1.100

     atomic species   valence    mass     pseudopotential
        Mo             6.00    95.50000     Mo( 1.00)
        S              6.00    32.06500     S ( 1.00)

     No symmetry found



   Cartesian axes

     site n.     atom                  positions (alat units)
         1           Mo  tau(   1) = (  -0.1832345   1.3601965   1.5648178  )
         2           Mo  tau(   2) = (   0.3220598   2.0859980   1.5636746  )
         3           Mo  tau(   3) = (  -0.4093500   0.9502333   4.1227174  )
         4           Mo  tau(   4) = (   0.0574043   2.1637134   4.1387508  )
         5           S   tau(   5) = (   0.0901481   0.7507160   3.6014037  )
         6           S   tau(   6) = (   0.3220431   1.5610886   2.0824231  )
         7           S   tau(   7) = (  -0.1373642   0.6237098   1.9563708  )
         8           S   tau(   8) = (  -0.1805543   1.8813385   1.0405532  )
         9           S   tau(   9) = (   0.0831782   1.4061581   4.5488359  )
        10           S   tau(  10) = (   0.3241461   0.8887836   1.1526276  )
        11           S   tau(  11) = (   0.3562183   1.4730409   0.2385011  )
        12           S   tau(  12) = (  -0.4180313   1.6814329   3.7629980  )

     number of k points=    16  Marzari-Vanderbilt smearing, width (Ry)=  0.0200
                       cart. coord. in units 2pi/alat
        k(    1) = (   0.0000000   0.0000000   0.0000000), wk =   0.0666667
        k(    2) = (   0.0000000   0.0000000  -0.1130606), wk =   0.0666667
        k(    3) = (   0.0000000   0.1726556  -0.0340055), wk =   0.1333333
        k(    4) = (   0.0000000   0.1726556  -0.1470661), wk =   0.1333333
        k(    5) = (   0.2000000   0.0034279   0.0354446), wk =   0.1333333
        k(    6) = (   0.2000000   0.0034279  -0.0776160), wk =   0.1333333
        k(    7) = (   0.2000000   0.1760835   0.0014391), wk =   0.1333333
        k(    8) = (   0.2000000   0.1760835  -0.1116215), wk =   0.1333333
        k(    9) = (   0.2000000  -0.1692276   0.0694501), wk =   0.1333333
        k(   10) = (   0.2000000  -0.1692276  -0.0436104), wk =   0.1333333
        k(   11) = (   0.4000000   0.0068559   0.0708893), wk =   0.1333333
        k(   12) = (   0.4000000   0.0068559  -0.0421713), wk =   0.1333333
        k(   13) = (   0.4000000   0.1795114   0.0368838), wk =   0.1333333
        k(   14) = (   0.4000000   0.1795114  -0.0761768), wk =   0.1333333
        k(   15) = (   0.4000000  -0.1657997   0.1048948), wk =   0.1333333
        k(   16) = (   0.4000000  -0.1657997  -0.0081658), wk =   0.1333333

     Dense  grid:   211661 G-vectors     FFT dimensions: (  40,  72, 180)

     Smooth grid:    74843 G-vectors     FFT dimensions: (  25,  50, 120)

     Estimated max dynamical RAM per process >      27.37 MB

     Estimated total dynamical RAM >       1.07 GB

     Initial potential from superposition of free atoms

     starting charge   71.99369, renormalised to   72.00000
     Starting wfcs are   68 randomized atomic wfcs

     total cpu time spent up to now is        1.9 secs

     Self-consistent Calculation

     iteration #  1     ecut=    45.00 Ry     beta= 0.70
     Davidson diagonalization with overlap
     ethr =  1.00E-02,  avg # of iterations =  2.4

     total cpu time spent up to now is        4.0 secs

     total energy              =    -281.10381131 Ry
     Harris-Foulkes estimate   =    -282.04488545 Ry
     estimated scf accuracy    <       2.47416112 Ry

     iteration #  2     ecut=    45.00 Ry     beta= 0.70
     Davidson diagonalization with overlap
     ethr =  3.44E-03,  avg # of iterations =  2.2

     total cpu time spent up to now is        5.9 secs

     total energy              =    -281.55319354 Ry
     Harris-Foulkes estimate   =    -281.69521774 Ry
     estimated scf accuracy    <       0.75068880 Ry

     iteration #  3     ecut=    45.00 Ry     beta= 0.70
     Davidson diagonalization with overlap
     ethr =  1.04E-03,  avg # of iterations =  1.0

     total cpu time spent up to now is        7.3 secs

     total energy              =    -281.58933762 Ry
     Harris-Foulkes estimate   =    -281.61129698 Ry
     estimated scf accuracy    <       0.08508110 Ry

     iteration #  4     ecut=    45.00 Ry     beta= 0.70
     Davidson diagonalization with overlap
     ethr =  1.18E-04,  avg # of iterations =  3.4

     total cpu time spent up to now is        9.7 secs

     total energy              =    -281.60877259 Ry
     Harris-Foulkes estimate   =    -281.61782529 Ry
     estimated scf accuracy    <       0.03590700 Ry

     iteration #  5     ecut=    45.00 Ry     beta= 0.70
     Davidson diagonalization with overlap
     ethr =  4.99E-05,  avg # of iterations =  1.5

     total cpu time spent up to now is       11.3 secs

     total energy              =    -281.61128081 Ry
     Harris-Foulkes estimate   =    -281.61186921 Ry
     estimated scf accuracy    <       0.00272324 Ry

     iteration #  6     ecut=    45.00 Ry     beta= 0.70
     Davidson diagonalization with overlap
     ethr =  3.78E-06,  avg # of iterations =  7.1

     total cpu time spent up to now is       15.1 secs

     total energy              =    -281.61202478 Ry
     Harris-Foulkes estimate   =    -281.61231560 Ry
     estimated scf accuracy    <       0.00110653 Ry

     iteration #  7     ecut=    45.00 Ry     beta= 0.70
     Davidson diagonalization with overlap
     ethr =  1.54E-06,  avg # of iterations =  1.5

     total cpu time spent up to now is       16.6 secs

     total energy              =    -281.61209921 Ry
     Harris-Foulkes estimate   =    -281.61212183 Ry
     estimated scf accuracy    <       0.00015109 Ry

     iteration #  8     ecut=    45.00 Ry     beta= 0.70
     Davidson diagonalization with overlap
     ethr =  2.10E-07,  avg # of iterations =  2.4

     total cpu time spent up to now is       18.4 secs

     total energy              =    -281.61209014 Ry
     Harris-Foulkes estimate   =    -281.61212294 Ry
     estimated scf accuracy    <       0.00013760 Ry

     iteration #  9     ecut=    45.00 Ry     beta= 0.70
     Davidson diagonalization with overlap
     ethr =  1.91E-07,  avg # of iterations =  2.4

     total cpu time spent up to now is       20.2 secs

     total energy              =    -281.61210662 Ry
     Harris-Foulkes estimate   =    -281.61210755 Ry
     estimated scf accuracy    <       0.00000361 Ry

     iteration # 10     ecut=    45.00 Ry     beta= 0.70
     Davidson diagonalization with overlap
     ethr =  5.02E-09,  avg # of iterations =  4.6

     total cpu time spent up to now is       23.3 secs

     total energy              =    -281.61210898 Ry
     Harris-Foulkes estimate   =    -281.61211008 Ry
     estimated scf accuracy    <       0.00000528 Ry

     iteration # 11     ecut=    45.00 Ry     beta= 0.70
     Davidson diagonalization with overlap
     ethr =  5.02E-09,  avg # of iterations =  1.7

     total cpu time spent up to now is       24.9 secs

     End of self-consistent calculation

          k = 0.0000 0.0000 0.0000 (  9373 PWs)   bands (ev):

    -8.7754  -8.5560  -7.9306  -7.7216  -7.2107  -7.1184  -6.7670  -6.6549
    -0.6346  -0.4501  -0.1825   0.3644   0.6245   0.8147   1.1583   1.2147
     2.0040   2.0696   2.1015   2.1374   2.1533   2.3161   2.7523   3.0656
     3.2564   3.4599   3.5981   3.9529   4.3491   4.5489   4.7884   5.1150
     5.3640   5.4327   5.5139   5.5462   5.6907   5.7099   5.7424   5.9297
     6.9239   7.2307   7.6546

          k = 0.0000 0.0000-0.1131 (  9382 PWs)   bands (ev):

    -8.7745  -8.5575  -7.9287  -7.7226  -7.2112  -7.1180  -6.7666  -6.6556
    -0.6345  -0.4505  -0.1687   0.3354   0.6229   0.8298   1.1583   1.2182
     2.0041   2.0687   2.1007   2.1335   2.1532   2.3132   2.7430   3.0879
     3.2887   3.4537   3.5976   3.9035   4.3492   4.5489   4.7952   5.1861
     5.2891   5.4305   5.5140   5.5519   5.6898   5.7191   5.7479   5.9289
     6.9430   7.2073   7.6543

          k = 0.0000 0.1727-0.0340 (  9388 PWs)   bands (ev):

    -8.5187  -8.2945  -7.9809  -7.8419  -7.5088  -7.3748  -6.7589  -6.6291
    -0.5196  -0.0782   0.0498   0.1688   0.6024   0.8456   1.3134   1.5389
     1.7903   2.0538   2.1070   2.2018   2.2311   2.2372   2.9288   2.9881
     3.0999   3.5067   3.8061   4.1455   4.2170   4.2980   4.5518   4.6271
     4.9695   5.0793   5.1898   5.4083   5.4527   5.5914   5.6930   5.7939
     6.9773   7.0370   7.9508

          k = 0.0000 0.1727-0.1471 (  9385 PWs)   bands (ev):

    -8.5182  -8.2958  -7.9794  -7.8427  -7.5086  -7.3749  -6.7584  -6.6297
    -0.5203  -0.0690   0.0448   0.1700   0.5963   0.8432   1.3113   1.5364
     1.8002   2.0522   2.1066   2.2018   2.2311   2.2372   2.9336   2.9857
     3.1020   3.5060   3.8262   4.1253   4.2058   4.2970   4.5259   4.6671
     4.9699   5.0790   5.1781   5.4145   5.4575   5.5871   5.6928   5.7908
     6.9632   7.0491   7.9485

          k = 0.2000 0.0034 0.0354 (  9373 PWs)   bands (ev):

    -8.3624  -8.1414  -7.7182  -7.5379  -7.0867  -7.0099  -6.5528  -6.4720
    -0.0972  -0.0277   0.0267   0.4423   0.6543   0.8308   0.8534   1.0442
     1.7558   1.9329   2.0837   2.1441   2.1860   2.3225   2.3738   2.4227
     2.7667   2.9861   3.3520   3.4289   3.5043   3.5657   3.9712   4.1815
     4.6098   4.9988   5.1152   5.4568   5.5855   5.8801   6.4508   6.5854
     7.5065   7.6802   7.8048

          k = 0.2000 0.0034-0.0776 (  9377 PWs)   bands (ev):

    -8.3621  -8.1422  -7.7172  -7.5384  -7.0867  -7.0099  -6.5527  -6.4721
    -0.0959  -0.0283   0.0272   0.4357   0.6661   0.8216   0.8557   1.0446
     1.7556   1.9330   2.0812   2.1435   2.1897   2.3197   2.3741   2.4223
     2.7681   2.9882   3.3536   3.4271   3.5040   3.5675   3.9703   4.1808
     4.6096   4.9522   5.1779   5.4445   5.5827   5.8776   6.4567   6.5846
     7.5075   7.6837   7.8078

          k = 0.2000 0.1761 0.0014 (  9361 PWs)   bands (ev):

    -8.1438  -7.9192  -7.7156  -7.5982  -7.3564  -7.2544  -6.5724  -6.4742
    -0.0655   0.4092   0.4701   0.5286   0.6689   0.9094   1.0527   1.2143
     1.3727   1.4453   1.7398   1.8821   1.9611   2.0766   2.5146   2.6057
     2.8813   3.0024   3.3662   3.4082   3.5347   3.6634   4.2504   4.3841
     4.5441   4.7447   5.0728   5.3052   5.7607   5.8810   6.2049   6.3129
     7.3229   7.4437   7.7568

          k = 0.2000 0.1761-0.1116 (  9369 PWs)   bands (ev):

    -8.1434  -7.9206  -7.7141  -7.5990  -7.3557  -7.2548  -6.5723  -6.4743
    -0.0661   0.4108   0.4718   0.5303   0.6683   0.8986   1.0611   1.2135
     1.3727   1.4420   1.7383   1.8832   1.9599   2.0838   2.5109   2.6064
     2.8819   3.0037   3.3658   3.4069   3.5345   3.6629   4.2583   4.3733
     4.5467   4.7596   5.0361   5.3245   5.7714   5.8707   6.1988   6.3245
     7.3260   7.4459   7.7531

          k = 0.2000-0.1692 0.0695 (  9374 PWs)   bands (ev):

    -8.1666  -7.9387  -7.7103  -7.5850  -7.3366  -7.2413  -6.5690  -6.4726
    -0.0638   0.3865   0.4275   0.5133   0.6503   0.8971   1.0153   1.1822
     1.4017   1.4908   1.7527   1.8906   1.9121   2.0685   2.5582   2.5703
     2.9311   3.0132   3.3394   3.4441   3.6305   3.7162   4.2478   4.3679
     4.4797   4.7529   4.9643   5.2919   5.7763   5.9014   6.2557   6.3375
     7.2388   7.3418   7.7862

          k = 0.2000-0.1692-0.0436 (  9359 PWs)   bands (ev):

    -8.1668  -7.9381  -7.7107  -7.5848  -7.3374  -7.2407  -6.5689  -6.4726
    -0.0640   0.3883   0.4270   0.5089   0.6545   0.9011   1.0074   1.1819
     1.4061   1.4921   1.7555   1.8906   1.9099   2.0641   2.5583   2.5707
     2.9276   3.0165   3.3393   3.4434   3.6310   3.7164   4.2571   4.3697
     4.4785   4.7336   4.9851   5.2831   5.7554   5.9190   6.2639   6.3294
     7.2430   7.3396   7.7892

          k = 0.4000 0.0069 0.0709 (  9348 PWs)   bands (ev):

    -7.5351  -7.3580  -7.3102  -7.2727  -6.7761  -6.7019  -6.3092  -6.2503
    -0.1752   0.0663   0.1053   0.1289   0.3564   0.4740   0.9942   1.0500
     1.1561   1.3334   1.5054   1.5909   1.7788   1.8971   2.3083   2.3669
     2.6134   2.6993   2.8130   2.8612   3.1866   3.2701   3.4587   3.5321
     4.0979   4.2356   4.7149   4.8916   6.7998   6.9034   7.0957   7.1821
     7.5214   7.6218   7.6905

          k = 0.4000 0.0069-0.0422 (  9330 PWs)   bands (ev):

    -7.5351  -7.3576  -7.3108  -7.2724  -6.7761  -6.7019  -6.3092  -6.2503
    -0.1751   0.0662   0.1049   0.1288   0.3569   0.4745   0.9911   1.0525
     1.1566   1.3356   1.5010   1.5919   1.7787   1.8997   2.3055   2.3656
     2.6123   2.7026   2.8139   2.8598   3.1835   3.2752   3.4626   3.5262
     4.1007   4.2362   4.7082   4.8955   6.8010   6.9017   7.0945   7.1841
     7.5226   7.6140   7.6897

          k = 0.4000 0.1795 0.0369 (  9326 PWs)   bands (ev):

    -7.5101  -7.3755  -7.3173  -7.2777  -6.8024  -6.7014  -6.3021  -6.2439
    -0.4354  -0.3429  -0.0126   0.0329   0.4367   0.5552   1.0063   1.3026
     1.3750   1.4740   1.6500   1.7112   1.7976   1.8867   2.2770   2.3596
     2.5861   2.6381   2.7241   2.7814   3.0809   3.2885   3.8384   4.0417
     4.2822   4.3585   4.6342   4.7484   6.7379   6.8424   7.0858   7.1082
     7.5586   7.7369   7.9483

          k = 0.4000 0.1795-0.0762 (  9312 PWs)   bands (ev):

    -7.5101  -7.3760  -7.3167  -7.2778  -6.8026  -6.7013  -6.3021  -6.2439
    -0.4359  -0.3424  -0.0130   0.0333   0.4337   0.5583   1.0094   1.2971
     1.3744   1.4753   1.6582   1.7104   1.7952   1.8833   2.2772   2.3589
     2.5855   2.6387   2.7226   2.7826   3.0771   3.2942   3.8384   4.0435
     4.2804   4.3539   4.6380   4.7484   6.7418   6.8388   7.0859   7.1078
     7.5579   7.7306   7.9533

          k = 0.4000-0.1658 0.1049 (  9338 PWs)   bands (ev):

    -7.5283  -7.3695  -7.3197  -7.2831  -6.7887  -6.7055  -6.2951  -6.2262
    -0.4576  -0.3834  -0.0228   0.0092   0.4587   0.5437   0.9813   1.2637
     1.3919   1.4784   1.6430   1.7563   1.8523   1.9132   2.2146   2.3011
     2.5222   2.5864   2.7972   3.0089   3.1206   3.3462   3.7789   4.0126
     4.2188   4.2759   4.6463   4.7811   6.7253   6.8286   7.1072   7.1543
     7.5434   7.7072   7.9272

          k = 0.4000-0.1658-0.0082 (  9326 PWs)   bands (ev):

    -7.5282  -7.3697  -7.3199  -7.2828  -6.7884  -6.7057  -6.2951  -6.2262
    -0.4584  -0.3823  -0.0228   0.0087   0.4619   0.5405   0.9818   1.2652
     1.3893   1.4756   1.6519   1.7524   1.8478   1.9160   2.2132   2.3016
     2.5227   2.5861   2.7986   3.0093   3.1209   3.3459   3.7713   4.0207
     4.2196   4.2799   4.6398   4.7815   6.7207   6.8340   7.1072   7.1541
     7.5506   7.6912   7.9354

     the Fermi energy is     5.5099 ev

!    total energy              =    -281.61210857 Ry
     Harris-Foulkes estimate   =    -281.61210934 Ry
     estimated scf accuracy    <       0.00000083 Ry

     The total energy is the sum of the following terms:

     one-electron contribution =    -151.62785571 Ry
     hartree contribution      =     113.94442910 Ry
     xc contribution           =    -111.37468658 Ry
     ewald contribution        =    -132.55334934 Ry
     smearing contrib. (-TS)   =      -0.00064604 Ry

     convergence has been achieved in  11 iterations

     Forces acting on atoms (cartesian axes, Ry/au):

     atom    1 type  1   force =     0.00883420   -0.08960580    0.00776346
     atom    2 type  1   force =    -0.00163281    0.08207579   -0.04891643
     atom    3 type  1   force =     0.00556641    0.06946715    0.01665453
     atom    4 type  1   force =    -0.00126073   -0.08314117    0.03516569
     atom    5 type  2   force =    -0.00207664    0.01329121   -0.05452655
     atom    6 type  2   force =    -0.00208702   -0.02078235    0.06925200
     atom    7 type  2   force =    -0.01320021   -0.00472882    0.01513114
     atom    8 type  2   force =     0.00133278    0.02464361   -0.04218840
     atom    9 type  2   force =    -0.00260759   -0.00226026   -0.00598156
     atom   10 type  2   force =     0.00749797    0.00836538    0.00511310
     atom   11 type  2   force =     0.00483466   -0.00270777    0.03296729
     atom   12 type  2   force =    -0.00520102    0.00538301   -0.03043428

     Total force =     0.209964     Total SCF correction =     0.001945
 
     init_run     :      1.15s CPU      1.22s WALL (       1 calls)
     electrons    :     22.43s CPU     22.94s WALL (       1 calls)
     forces       :      0.61s CPU      0.61s WALL (       1 calls)

     Called by init_run:
     wfcinit      :      0.66s CPU      0.70s WALL (       1 calls)
     potinit      :      0.14s CPU      0.14s WALL (       1 calls)
     hinit0       :      0.19s CPU      0.20s WALL (       1 calls)

     Called by electrons:
     c_bands      :     18.10s CPU     18.49s WALL (      11 calls)
     sum_band     :      3.14s CPU      3.24s WALL (      11 calls)
     v_of_rho     :      0.20s CPU      0.21s WALL (      12 calls)
     newd         :      0.83s CPU      0.85s WALL (      12 calls)
     mix_rho      :      0.19s CPU      0.20s WALL (      11 calls)

     Called by c_bands:
     init_us_2    :      0.40s CPU      0.42s WALL (     384 calls)
     cegterg      :     16.85s CPU     17.21s WALL (     176 calls)

     Called by sum_band:
     sum_band:bec :      0.02s CPU      0.02s WALL (     176 calls)
     addusdens    :      1.30s CPU      1.34s WALL (      11 calls)

     Called by *egterg:
     h_psi        :      7.79s CPU      8.08s WALL (     673 calls)
     s_psi        :      0.66s CPU      0.67s WALL (     673 calls)
     g_psi        :      0.03s CPU      0.03s WALL (     481 calls)
     cdiaghg      :      6.55s CPU      6.61s WALL (     657 calls)

     Called by h_psi:
     h_psi:pot    :      7.74s CPU      8.02s WALL (     673 calls)
     h_psi:calbec :      1.11s CPU      1.14s WALL (     673 calls)
     vloc_psi     :      5.90s CPU      6.15s WALL (     673 calls)
     add_vuspsi   :      0.72s CPU      0.73s WALL (     673 calls)

     General routines
     calbec       :      1.61s CPU      1.64s WALL (     913 calls)
     fft          :      0.18s CPU      0.18s WALL (     165 calls)
     ffts         :      0.10s CPU      0.10s WALL (     351 calls)
     fftw         :      6.63s CPU      6.92s WALL (   48448 calls)
     interpolate  :      0.02s CPU      0.02s WALL (      12 calls)
 
     Parallel routines
     fft_scatt_xy :      0.47s CPU      0.49s WALL (   48964 calls)
     fft_scatt_yz :      4.35s CPU      4.54s WALL (   48964 calls)
 
     PWSCF        :     24.89s CPU     25.56s WALL

 
   This run was terminated on:  11:27:45  14Oct2021            

=------------------------------------------------------------------------------=
   JOB DONE.
=------------------------------------------------------------------------------=
