
     Program PWSCF v.6.4 starts on 23Dec2021 at 23:40:35 

     This program is part of the open-source Quantum ESPRESSO suite
     for quantum simulation of materials; please cite
         "P. Giannozzi et al., J. Phys.:Condens. Matter 21 395502 (2009);
         "P. Giannozzi et al., J. Phys.:Condens. Matter 29 465901 (2017);
          URL http://www.quantum-espresso.org", 
     in publications or presentations arising from this work. More details at
     http://www.quantum-espresso.org/quote

     Parallel version (MPI), running on    40 processors

     MPI processes distributed on     1 nodes
     R & G space division:  proc/nbgrp/npool/nimage =      40
     Waiting for input...
     Reading input from standard input
Warning: card    &IONS ignored
Warning: card      ION_DYNAMICS = 'BFGS' ignored
Warning: card   / ignored
Warning: card    &CELL ignored
Warning: card      CELL_DYNAMICS = 'BFGS', ignored
Warning: card    / ignored

     Current dimensions of program PWSCF are:
     Max number of different atomic species (ntypx) = 10
     Max number of k-points (npk) =  40000
     Max angular momentum in pseudopotentials (lmaxx) =  3

     Subspace diagonalization in iterative solution of the eigenvalue problem:
     one sub-group per band group will be used
     scalapack distributed-memory algorithm (size of sub-group:  4*  4 procs)

 
     Parallelization info
     --------------------
     sticks:   dense  smooth     PW     G-vecs:    dense   smooth      PW
     Min         257     128     37                15396     5441     842
     Max         258     129     38                15398     5445     845
     Sum       10305    5149   1481               615887   217727   33741
 


     bravais-lattice index     =            0
     lattice parameter (alat)  =      19.0032  a.u.
     unit-cell volume          =    5339.2615 (a.u.)^3
     number of atoms/cell      =           33
     number of atomic types    =            2
     number of electrons       =       198.00
     number of Kohn-Sham states=          119
     kinetic-energy cutoff     =      45.0000  Ry
     charge density cutoff     =     360.0000  Ry
     convergence threshold     =      1.0E-06
     mixing beta               =       0.7000
     number of iterations used =            8  local-TF  mixing
     Exchange-correlation      = SLA PW GGX GGC ( 1  4  2  2 0 0)

     celldm(1)=  19.003180  celldm(2)=   0.000000  celldm(3)=   0.000000
     celldm(4)=   0.000000  celldm(5)=   0.000000  celldm(6)=   0.000000

     crystal axes: (cart. coord. in units of alat)
               a(1) = (   1.000000   0.000000   0.000000 )  
               a(2) = (  -0.058654   0.995151   0.000000 )  
               a(3) = (  -0.562709  -0.461687   0.781832 )  

     reciprocal axes: (cart. coord. in units 2 pi/alat)
               b(1) = (  1.000000  0.058939  0.754537 )  
               b(2) = (  0.000000  1.004873  0.593397 )  
               b(3) = (  0.000000  0.000000  1.279048 )  


     PseudoPot. # 1 for Mo read from file:
     ~/pseudo/Mo.pw91-n-van.UPF
     MD5 check sum: Not computed, couldn't open file
     Pseudo is Ultrasoft + core correction, Zval =  6.0
     Generated by new atomic code, or converted to UPF format
     Using radial grid of  965 points,  3 beta functions with: 
                l(1) =   1
                l(2) =   2
                l(3) =   2
     Q(r) pseudized with  8 coefficients,  rinner =    1.000   1.000   1.000
                                                       1.200   1.200

     PseudoPot. # 2 for S  read from file:
     ~/pseudo/S.pw91-van_ak.UPF
     MD5 check sum: Not computed, couldn't open file
     Pseudo is Ultrasoft, Zval =  6.0
     Generated by new atomic code, or converted to UPF format
     Using radial grid of  811 points,  6 beta functions with: 
                l(1) =   0
                l(2) =   0
                l(3) =   1
                l(4) =   1
                l(5) =   2
                l(6) =   2
     Q(r) pseudized with  8 coefficients,  rinner =    1.100   1.100   1.100
                                                       1.100   1.100

     atomic species   valence    mass     pseudopotential
        Mo             6.00    95.50000     Mo( 1.00)
        S              6.00    32.06500     S ( 1.00)

     No symmetry found



   Cartesian axes

     site n.     atom                  positions (alat units)
         1           Mo  tau(   1) = (   0.4360839   0.7191532   0.4594531  )
         2           Mo  tau(   2) = (   0.2905013   0.2178468   0.1567160  )
         3           Mo  tau(   3) = (   0.1319715   0.4140979   0.5583812  )
         4           Mo  tau(   4) = (   0.0979617   0.6257995   0.3535703  )
         5           Mo  tau(   5) = (  -0.3943853  -0.4051085   0.6849305  )
         6           Mo  tau(   6) = (  -0.1046822   0.2496458   0.5667156  )
         7           Mo  tau(   7) = (   0.2764591   0.8223981   0.2088892  )
         8           Mo  tau(   8) = (   0.2865430   0.5088338   0.1576659  )
         9           Mo  tau(   9) = (   0.5185043   0.8733941   0.0181007  )
        10           Mo  tau(  10) = (  -0.3859916  -0.1143953   0.6785173  )
        11           Mo  tau(  11) = (  -0.1431952   0.5453166   0.5656211  )
        12           S   tau(  12) = (  -0.2121599   0.0671958   0.7093225  )
        13           S   tau(  13) = (   0.4754385   0.6916186   0.1926768  )
        14           S   tau(  14) = (   0.2269525   0.2244853   0.4013850  )
        15           S   tau(  15) = (   0.4776520   0.3613769   0.1924798  )
        16           S   tau(  16) = (   0.4784010   0.0276660   0.1945032  )
        17           S   tau(  17) = (  -0.1147471   0.7298885   0.4059357  )
        18           S   tau(  18) = (   0.0798427   0.2328264   0.7043478  )
        19           S   tau(  19) = (  -0.0887608   0.0834461   0.3960468  )
        20           S   tau(  20) = (  -0.3821312   0.5491681   0.4625143  )
        21           S   tau(  21) = (  -0.2621762   0.3773720   0.7015391  )
        22           S   tau(  22) = (  -0.1967341  -0.2637283   0.7030508  )
        23           S   tau(  23) = (   0.6622481  -0.1130347   0.4374966  )
        24           S   tau(  24) = (  -0.0395921   0.4145419   0.3926286  )
        25           S   tau(  25) = (   0.3557397   0.4200604   0.6928635  )
        26           S   tau(  26) = (   0.1170329  -0.3969399   0.6942683  )
        27           S   tau(  27) = (   0.2735882  -0.1678908   0.4321012  )
        28           S   tau(  28) = (   0.1090641   0.6780521   0.1271135  )
        29           S   tau(  29) = (   0.1752981   0.0044914   0.1418665  )
        30           S   tau(  30) = (   0.3029041   0.5079200   0.4084129  )
        31           S   tau(  31) = (   0.1029132   0.3579715   0.1264980  )
        32           S   tau(  32) = (   0.4189254  -0.2597498   0.6863300  )
        33           S   tau(  33) = (   0.4801011   0.0771121   0.6041279  )

     number of k points=     8  Marzari-Vanderbilt smearing, width (Ry)=  0.0200
                       cart. coord. in units 2pi/alat
        k(    1) = (   0.0000000   0.0000000   0.0000000), wk =   0.2500000
        k(    2) = (   0.0000000   0.0000000  -0.6395238), wk =   0.2500000
        k(    3) = (   0.0000000  -0.5024363  -0.2966983), wk =   0.2500000
        k(    4) = (   0.0000000  -0.5024363  -0.9362221), wk =   0.2500000
        k(    5) = (  -0.5000000  -0.0294696  -0.3772683), wk =   0.2500000
        k(    6) = (  -0.5000000  -0.0294696  -1.0167921), wk =   0.2500000
        k(    7) = (  -0.5000000  -0.5319059  -0.6739666), wk =   0.2500000
        k(    8) = (  -0.5000000  -0.5319059  -1.3134904), wk =   0.2500000

     Dense  grid:   615887 G-vectors     FFT dimensions: ( 120, 120, 125)

     Smooth grid:   217727 G-vectors     FFT dimensions: (  81,  81,  90)

     Estimated max dynamical RAM per process >     103.40 MB

     Estimated total dynamical RAM >       4.04 GB

     Initial potential from superposition of free atoms

     starting charge  197.98265, renormalised to  198.00000
     Starting wfcs are  187 randomized atomic wfcs

     total cpu time spent up to now is        5.8 secs

     Self-consistent Calculation

     iteration #  1     ecut=    45.00 Ry     beta= 0.70
     Davidson diagonalization with overlap
     ethr =  1.00E-02,  avg # of iterations =  2.0

     total cpu time spent up to now is       14.6 secs

     total energy              =    -772.06000438 Ry
     Harris-Foulkes estimate   =    -775.40933610 Ry
     estimated scf accuracy    <       9.71323907 Ry

     iteration #  2     ecut=    45.00 Ry     beta= 0.70
     Davidson diagonalization with overlap
     ethr =  4.91E-03,  avg # of iterations =  2.0

     total cpu time spent up to now is       22.9 secs

     total energy              =    -773.36113244 Ry
     Harris-Foulkes estimate   =    -774.30662328 Ry
     estimated scf accuracy    <       6.28291300 Ry

     iteration #  3     ecut=    45.00 Ry     beta= 0.70
     Davidson diagonalization with overlap
     ethr =  3.17E-03,  avg # of iterations =  1.0

     total cpu time spent up to now is       29.4 secs

     total energy              =    -773.82255146 Ry
     Harris-Foulkes estimate   =    -773.88081748 Ry
     estimated scf accuracy    <       0.38380448 Ry

     iteration #  4     ecut=    45.00 Ry     beta= 0.70
     Davidson diagonalization with overlap
     ethr =  1.94E-04,  avg # of iterations =  3.0

     total cpu time spent up to now is       38.3 secs

     total energy              =    -773.85982503 Ry
     Harris-Foulkes estimate   =    -773.89688628 Ry
     estimated scf accuracy    <       0.12070561 Ry

     iteration #  5     ecut=    45.00 Ry     beta= 0.70
     Davidson diagonalization with overlap
     ethr =  6.10E-05,  avg # of iterations =  2.0

     total cpu time spent up to now is       45.4 secs

     total energy              =    -773.87532114 Ry
     Harris-Foulkes estimate   =    -773.88041852 Ry
     estimated scf accuracy    <       0.04389971 Ry

     iteration #  6     ecut=    45.00 Ry     beta= 0.70
     Davidson diagonalization with overlap
     ethr =  2.22E-05,  avg # of iterations =  3.4

     total cpu time spent up to now is       53.0 secs

     total energy              =    -773.87591218 Ry
     Harris-Foulkes estimate   =    -773.87950530 Ry
     estimated scf accuracy    <       0.03345155 Ry

     iteration #  7     ecut=    45.00 Ry     beta= 0.70
     Davidson diagonalization with overlap
     ethr =  1.69E-05,  avg # of iterations =  1.0

     total cpu time spent up to now is       59.6 secs

     total energy              =    -773.87694375 Ry
     Harris-Foulkes estimate   =    -773.87761985 Ry
     estimated scf accuracy    <       0.00352781 Ry

     iteration #  8     ecut=    45.00 Ry     beta= 0.70
     Davidson diagonalization with overlap
     ethr =  1.78E-06,  avg # of iterations =  9.9

     total cpu time spent up to now is       72.7 secs

     total energy              =    -773.87738371 Ry
     Harris-Foulkes estimate   =    -773.87754186 Ry
     estimated scf accuracy    <       0.00071104 Ry

     iteration #  9     ecut=    45.00 Ry     beta= 0.70
     Davidson diagonalization with overlap
     ethr =  3.59E-07,  avg # of iterations =  2.0

     total cpu time spent up to now is       79.9 secs

     total energy              =    -773.87739268 Ry
     Harris-Foulkes estimate   =    -773.87747506 Ry
     estimated scf accuracy    <       0.00034393 Ry

     iteration # 10     ecut=    45.00 Ry     beta= 0.70
     Davidson diagonalization with overlap
     ethr =  1.74E-07,  avg # of iterations =  1.8

     total cpu time spent up to now is       86.7 secs

     total energy              =    -773.87741618 Ry
     Harris-Foulkes estimate   =    -773.87743284 Ry
     estimated scf accuracy    <       0.00009046 Ry

     iteration # 11     ecut=    45.00 Ry     beta= 0.70
     Davidson diagonalization with overlap
     ethr =  4.57E-08,  avg # of iterations =  3.2

     total cpu time spent up to now is       94.4 secs

     total energy              =    -773.87742503 Ry
     Harris-Foulkes estimate   =    -773.87742906 Ry
     estimated scf accuracy    <       0.00002836 Ry

     iteration # 12     ecut=    45.00 Ry     beta= 0.70
     Davidson diagonalization with overlap
     ethr =  1.43E-08,  avg # of iterations =  3.2

     total cpu time spent up to now is      102.3 secs

     total energy              =    -773.87742719 Ry
     Harris-Foulkes estimate   =    -773.87742871 Ry
     estimated scf accuracy    <       0.00000673 Ry

     iteration # 13     ecut=    45.00 Ry     beta= 0.70
     Davidson diagonalization with overlap
     ethr =  3.40E-09,  avg # of iterations =  2.9

     total cpu time spent up to now is      110.3 secs

     End of self-consistent calculation

          k = 0.0000 0.0000 0.0000 ( 27217 PWs)   bands (ev):

    -9.2838  -8.6816  -8.6084  -8.4559  -8.3786  -8.2955  -8.2166  -8.1176
    -8.0701  -8.0052  -7.7885  -7.7416  -7.6818  -7.5075  -7.3914  -7.0951
    -6.9568  -6.9153  -6.5618  -6.3498  -6.1747  -6.0292  -0.9928  -0.8807
    -0.7707  -0.6207  -0.5705  -0.4290  -0.3221  -0.2678  -0.1995  -0.1337
    -0.0572   0.0526   0.1329   0.1891   0.2543   0.3339   0.3663   0.3909
     0.4904   0.5197   0.6306   0.6712   0.8241   0.8505   0.8840   0.9022
     1.0523   1.1511   1.1792   1.2826   1.3516   1.3901   1.4172   1.4956
     1.5461   1.5819   1.7164   1.7708   1.8554   1.9057   1.9811   2.0825
     2.0981   2.1462   2.2044   2.3581   2.4385   2.5356   2.6032   2.6899
     2.8038   2.8981   2.9550   3.0690   3.1114   3.2117   3.2887   3.3966
     3.4763   3.6396   3.7030   3.7534   3.8242   3.9018   3.9885   4.0948
     4.1701   4.2052   4.3437   4.4060   4.4504   4.5664   4.6196   4.7184
     4.7799   4.8545   4.9035   5.1022   5.1650   5.1894   5.2992   5.3319
     5.4424   5.6066   5.6893   5.7903   5.9099   6.0003   6.1648   6.2646
     6.3627   6.4363   6.4827   6.5712   6.6065   6.7573   6.8192

          k = 0.0000 0.0000-0.6395 ( 27200 PWs)   bands (ev):

    -9.0398  -8.9945  -8.6974  -8.4733  -8.4337  -8.2740  -8.2043  -8.0649
    -7.9721  -7.9505  -7.8446  -7.7537  -7.6342  -7.5067  -7.3276  -7.0779
    -6.9784  -6.9220  -6.5621  -6.3574  -6.1801  -6.0318  -1.1184  -0.9629
    -0.9203  -0.7462  -0.5443  -0.4357  -0.3794  -0.3493  -0.2071  -0.1334
    -0.0455   0.0478   0.1236   0.2129   0.2895   0.3488   0.4337   0.5106
     0.5627   0.5921   0.7360   0.8012   0.8898   0.9498   0.9689   1.0292
     1.0815   1.1503   1.1958   1.2991   1.3454   1.4157   1.4471   1.4751
     1.5372   1.5737   1.6806   1.7190   1.8011   1.9532   1.9935   2.0716
     2.1140   2.2726   2.3160   2.3828   2.4179   2.5033   2.5957   2.6292
     2.7346   2.8210   2.9145   2.9509   3.0256   3.1712   3.2499   3.3179
     3.4007   3.5633   3.6645   3.7324   3.7733   3.8903   3.9670   4.0570
     4.1279   4.2544   4.3142   4.3847   4.4063   4.5885   4.6412   4.7976
     4.8198   4.8730   4.9532   5.0568   5.2586   5.3158   5.3392   5.3719
     5.4790   5.6000   5.7467   5.8090   5.9456   6.0816   6.1624   6.3208
     6.3545   6.4429   6.4449   6.5609   6.6040   6.7130   6.7400

          k = 0.0000-0.5024-0.2967 ( 27262 PWs)   bands (ev):

    -9.1736  -8.8037  -8.6399  -8.6158  -8.3088  -8.2811  -8.2291  -8.0728
    -8.0552  -7.9458  -7.8271  -7.7059  -7.6685  -7.5525  -7.3303  -7.0616
    -6.9817  -6.9078  -6.5523  -6.3682  -6.1687  -6.0316  -1.0922  -0.9743
    -0.9312  -0.7111  -0.6024  -0.4384  -0.3368  -0.2330  -0.1857  -0.0995
    -0.0100   0.0123   0.1579   0.2200   0.2497   0.3438   0.3918   0.4745
     0.5366   0.5602   0.6670   0.8050   0.8377   0.8633   0.9256   0.9469
     1.1179   1.1356   1.2008   1.2580   1.3110   1.3711   1.4221   1.4819
     1.5702   1.6184   1.7061   1.8137   1.8364   1.9490   2.0370   2.1057
     2.1566   2.2224   2.3183   2.3938   2.4574   2.5448   2.6151   2.6540
     2.7667   2.7909   2.9483   2.9707   2.9952   3.1366   3.2624   3.3096
     3.4441   3.5506   3.7051   3.7382   3.8204   3.9224   4.0242   4.0644
     4.1504   4.2523   4.2782   4.3768   4.4577   4.5068   4.5989   4.7311
     4.8402   4.8649   4.9763   5.1040   5.1409   5.1513   5.3433   5.4137
     5.4746   5.6019   5.7518   5.8421   5.9674   6.0202   6.1906   6.2361
     6.3388   6.4179   6.5037   6.5342   6.6387   6.6979   6.7596

          k = 0.0000-0.5024-0.9362 ( 27182 PWs)   bands (ev):

    -9.1065  -8.9465  -8.6100  -8.4861  -8.3826  -8.3127  -8.2006  -8.1767
    -8.0185  -7.9732  -7.7382  -7.7119  -7.6599  -7.5157  -7.3631  -7.0718
    -6.9824  -6.9017  -6.5525  -6.3668  -6.1699  -6.0293  -1.1567  -0.9194
    -0.8288  -0.7503  -0.5491  -0.4652  -0.3666  -0.3362  -0.2289  -0.1989
    -0.0665   0.0434   0.1142   0.2084   0.3016   0.3831   0.4093   0.4359
     0.5340   0.6549   0.7767   0.8111   0.8478   0.8625   0.9965   1.0574
     1.1007   1.1226   1.2221   1.2873   1.3142   1.3698   1.4411   1.4965
     1.5761   1.6069   1.6648   1.7907   1.8587   1.8996   1.9290   1.9941
     2.0839   2.1379   2.3554   2.4110   2.4411   2.4676   2.5838   2.6863
     2.7946   2.8606   2.9181   3.0035   3.1086   3.2422   3.3767   3.4177
     3.4931   3.5378   3.6304   3.7041   3.8057   3.8435   3.9388   4.0199
     4.1475   4.2250   4.2762   4.3534   4.4310   4.4533   4.6414   4.7717
     4.8255   4.8974   4.9942   5.0257   5.1667   5.1816   5.3781   5.4972
     5.5658   5.6070   5.7153   5.8606   5.9838   6.0479   6.1554   6.2186
     6.3013   6.3684   6.4533   6.5032   6.6171   6.6847   6.7702

          k =-0.5000-0.0295-0.3773 ( 27190 PWs)   bands (ev):

    -9.1585  -8.8516  -8.6658  -8.5058  -8.3695  -8.2998  -8.2344  -8.0575
    -8.0193  -7.9504  -7.8311  -7.7462  -7.6576  -7.5275  -7.3333  -7.0622
    -6.9780  -6.9042  -6.5693  -6.3593  -6.1548  -6.0485  -1.1317  -1.0053
    -0.8012  -0.6732  -0.5702  -0.4747  -0.3233  -0.2858  -0.2227  -0.1445
    -0.0643   0.0366   0.0724   0.2366   0.3049   0.4041   0.4600   0.4907
     0.5384   0.6552   0.6789   0.7599   0.8290   0.8942   0.9716   0.9943
     1.0616   1.0817   1.1824   1.2201   1.2643   1.3479   1.4647   1.4938
     1.5379   1.5963   1.6982   1.7743   1.8583   1.8779   1.9898   2.1170
     2.1690   2.1954   2.2852   2.4044   2.5037   2.5175   2.5564   2.5918
     2.6949   2.8502   2.9367   3.0450   3.0795   3.2706   3.3185   3.4528
     3.5246   3.5369   3.6106   3.6638   3.7468   3.8382   3.9514   4.0746
     4.1773   4.2277   4.2832   4.3663   4.4427   4.5203   4.6723   4.7337
     4.7752   4.8681   4.9488   5.1316   5.1816   5.2112   5.2680   5.4625
     5.5218   5.5804   5.6823   5.7416   5.9219   6.1428   6.1896   6.2245
     6.3649   6.4082   6.4620   6.5518   6.6108   6.7231   6.8610

          k =-0.5000-0.0295-1.0168 ( 27240 PWs)   bands (ev):

    -9.1444  -8.9587  -8.5344  -8.4462  -8.4208  -8.3236  -8.2055  -8.0876
    -8.0367  -7.9681  -7.7717  -7.7376  -7.6921  -7.5028  -7.3914  -7.0867
    -6.9618  -6.8954  -6.5598  -6.3579  -6.1608  -6.0466  -1.2097  -0.8859
    -0.7145  -0.5871  -0.5576  -0.4507  -0.3485  -0.2334  -0.2138  -0.1390
    -0.1153  -0.0365   0.0994   0.1674   0.2716   0.3212   0.4559   0.4616
     0.5170   0.6072   0.6172   0.6731   0.7840   0.8136   0.9390   0.9620
     1.0860   1.2122   1.2287   1.3323   1.3381   1.3666   1.5014   1.5161
     1.5772   1.6447   1.7246   1.8014   1.8339   1.9234   2.0082   2.0725
     2.1099   2.1792   2.2180   2.3152   2.4761   2.5779   2.6430   2.6651
     2.7793   2.8314   2.9365   2.9628   3.0175   3.1384   3.1996   3.2763
     3.4508   3.5252   3.6276   3.8022   3.8799   3.9323   4.0117   4.0494
     4.1229   4.2305   4.3171   4.4205   4.5071   4.5792   4.6196   4.6849
     4.8075   4.8473   4.9561   4.9973   5.1385   5.2346   5.3609   5.4053
     5.4628   5.5746   5.6125   5.8322   6.0389   6.1025   6.1486   6.2388
     6.3817   6.4355   6.5083   6.5691   6.6462   6.7051   6.7851

          k =-0.5000-0.5319-0.6740 ( 27210 PWs)   bands (ev):

    -9.1226  -8.9088  -8.6600  -8.4894  -8.3379  -8.2873  -8.2193  -8.1306
    -8.0508  -8.0061  -7.7410  -7.7148  -7.6711  -7.5298  -7.3606  -7.0626
    -6.9473  -6.9254  -6.5517  -6.3575  -6.1530  -6.0435  -1.2029  -1.0104
    -0.8835  -0.7509  -0.5536  -0.4943  -0.2886  -0.2647  -0.1554  -0.0927
    -0.0596   0.0473   0.1147   0.1954   0.3537   0.3879   0.4312   0.5609
     0.5685   0.6170   0.6461   0.7183   0.8266   0.8466   0.9464   1.0130
     1.0611   1.1368   1.1810   1.2275   1.3432   1.3874   1.4713   1.5104
     1.5629   1.6127   1.6867   1.7467   1.9112   1.9214   1.9836   2.0736
     2.1527   2.2867   2.3198   2.3840   2.4271   2.4823   2.6096   2.6803
     2.7256   2.7471   2.9024   3.0357   3.0756   3.1439   3.2877   3.3953
     3.4417   3.5584   3.6015   3.6603   3.7494   3.8274   3.9586   4.0339
     4.0678   4.2543   4.3569   4.4268   4.5114   4.5720   4.6376   4.7829
     4.8214   4.8878   4.9505   5.0214   5.1079   5.2205   5.2698   5.4555
     5.5514   5.7237   5.7773   5.9137   5.9547   6.0574   6.1579   6.2126
     6.3019   6.4870   6.5499   6.5760   6.6421   6.6930   6.7474

          k =-0.5000-0.5319-1.3135 ( 27226 PWs)   bands (ev):

    -9.0297  -8.9773  -8.6879  -8.5117  -8.3896  -8.3671  -8.2042  -8.0269
    -7.9860  -7.9634  -7.8296  -7.6917  -7.6777  -7.5348  -7.3403  -7.0609
    -6.9454  -6.9167  -6.5568  -6.3663  -6.1605  -6.0462  -1.1079  -0.9941
    -0.8578  -0.7357  -0.6416  -0.4794  -0.4283  -0.3817  -0.2363  -0.0865
    -0.0081   0.0429   0.0689   0.2063   0.2829   0.3927   0.4920   0.5365
     0.6283   0.6658   0.6827   0.7536   0.8455   0.8934   0.9343   1.0626
     1.1286   1.1433   1.2223   1.3026   1.3655   1.3783   1.4551   1.5080
     1.5663   1.6103   1.6617   1.7853   1.9011   1.9597   2.0421   2.1167
     2.1364   2.2021   2.2423   2.2666   2.3678   2.5049   2.5845   2.6372
     2.7616   2.8455   2.8744   2.9449   3.0572   3.1573   3.1656   3.3145
     3.3920   3.5387   3.5602   3.8356   3.9280   3.9675   4.0412   4.0481
     4.2229   4.2761   4.3233   4.3671   4.4216   4.5311   4.5986   4.7178
     4.7541   4.8472   4.9728   5.0083   5.0632   5.1990   5.3055   5.4589
     5.5351   5.6305   5.6892   5.9704   5.9847   6.0321   6.1092   6.3056
     6.3827   6.3975   6.5122   6.5701   6.6535   6.7150   6.7331

     the Fermi energy is     5.0080 ev

!    total energy              =    -773.87742767 Ry
     Harris-Foulkes estimate   =    -773.87742832 Ry
     estimated scf accuracy    <       0.00000081 Ry

     The total energy is the sum of the following terms:

     one-electron contribution =    -231.46596588 Ry
     hartree contribution      =     216.70051260 Ry
     xc contribution           =    -304.89025257 Ry
     ewald contribution        =    -454.22214144 Ry
     smearing contrib. (-TS)   =       0.00041962 Ry

     convergence has been achieved in  13 iterations

     Forces acting on atoms (cartesian axes, Ry/au):

     atom    1 type  1   force =     0.06064116    0.02468667   -0.02669128
     atom    2 type  1   force =     0.04597066    0.04327826    0.05631823
     atom    3 type  1   force =     0.03732035   -0.04227741    0.02189976
     atom    4 type  1   force =    -0.02817341    0.07564648    0.02129090
     atom    5 type  1   force =    -0.02897323   -0.03738231   -0.01428304
     atom    6 type  1   force =    -0.02475127   -0.05046919   -0.05734251
     atom    7 type  1   force =    -0.00284612   -0.03493477   -0.01052591
     atom    8 type  1   force =     0.02848114    0.00510487   -0.03482669
     atom    9 type  1   force =    -0.04054498    0.02619520   -0.00281282
     atom   10 type  1   force =    -0.01865066    0.04078787   -0.01809511
     atom   11 type  1   force =     0.02568845    0.00670556    0.01423247
     atom   12 type  2   force =    -0.00176609    0.00416799   -0.00099425
     atom   13 type  2   force =    -0.02275396    0.00586442    0.02829154
     atom   14 type  2   force =     0.00563519   -0.01319974   -0.02871443
     atom   15 type  2   force =    -0.04140260   -0.02655090   -0.01252515
     atom   16 type  2   force =     0.00118113   -0.01067526   -0.00331388
     atom   17 type  2   force =     0.04117419   -0.01087636   -0.01295978
     atom   18 type  2   force =     0.02175677   -0.00956469   -0.00352571
     atom   19 type  2   force =    -0.00179148    0.05461925    0.06170151
     atom   20 type  2   force =    -0.01932952   -0.00513383    0.01730257
     atom   21 type  2   force =     0.02466662    0.00905832   -0.00343760
     atom   22 type  2   force =     0.00810329   -0.00103761    0.00222890
     atom   23 type  2   force =    -0.04245881   -0.01905185    0.00840773
     atom   24 type  2   force =    -0.02868762   -0.01773356   -0.00219591
     atom   25 type  2   force =     0.00409972    0.00362908   -0.00924018
     atom   26 type  2   force =    -0.01865293    0.00724712   -0.00081628
     atom   27 type  2   force =    -0.00324880    0.01240814    0.01080185
     atom   28 type  2   force =    -0.01984744   -0.02384042   -0.01596023
     atom   29 type  2   force =    -0.00798639   -0.00625476    0.00691889
     atom   30 type  2   force =    -0.00247533    0.01776351   -0.01252204
     atom   31 type  2   force =    -0.00319577    0.00708770    0.01791393
     atom   32 type  2   force =     0.02076133   -0.00301720   -0.01433566
     atom   33 type  2   force =     0.03205643   -0.03225059    0.01781019

     Total force =     0.256936     Total SCF correction =     0.001311
 
     init_run     :      4.93s CPU      5.03s WALL (       1 calls)
     electrons    :    102.64s CPU    104.57s WALL (       1 calls)
     forces       :      2.33s CPU      2.39s WALL (       1 calls)

     Called by init_run:
     wfcinit      :      3.41s CPU      3.46s WALL (       1 calls)
     potinit      :      0.44s CPU      0.45s WALL (       1 calls)
     hinit0       :      0.57s CPU      0.59s WALL (       1 calls)

     Called by electrons:
     c_bands      :     82.59s CPU     83.53s WALL (      13 calls)
     sum_band     :     15.32s CPU     16.00s WALL (      13 calls)
     v_of_rho     :      1.11s CPU      1.14s WALL (      14 calls)
     newd         :      2.73s CPU      2.92s WALL (      14 calls)
     mix_rho      :      1.03s CPU      1.10s WALL (      13 calls)

     Called by c_bands:
     init_us_2    :      1.51s CPU      1.53s WALL (     224 calls)
     cegterg      :     76.99s CPU     77.90s WALL (     104 calls)

     Called by sum_band:
     sum_band:bec :      0.15s CPU      0.16s WALL (     104 calls)
     addusdens    :      3.59s CPU      4.06s WALL (      13 calls)

     Called by *egterg:
     h_psi        :     48.53s CPU     49.21s WALL (     411 calls)
     s_psi        :      6.48s CPU      6.49s WALL (     411 calls)
     g_psi        :      0.13s CPU      0.14s WALL (     299 calls)
     cdiaghg      :     13.69s CPU     13.88s WALL (     403 calls)

     Called by h_psi:
     h_psi:pot    :     48.26s CPU     48.92s WALL (     411 calls)
     h_psi:calbec :      7.27s CPU      7.46s WALL (     411 calls)
     vloc_psi     :     34.45s CPU     34.93s WALL (     411 calls)
     add_vuspsi   :      6.52s CPU      6.54s WALL (     411 calls)

     General routines
     calbec       :     11.06s CPU     11.35s WALL (     547 calls)
     fft          :      1.07s CPU      1.13s WALL (     191 calls)
     ffts         :      0.55s CPU      0.62s WALL (     445 calls)
     fftw         :     39.05s CPU     39.58s WALL (   71572 calls)
     interpolate  :      0.10s CPU      0.11s WALL (      14 calls)
 
     Parallel routines
     fft_scatt_xy :      4.29s CPU      4.35s WALL (   72208 calls)
     fft_scatt_yz :     16.17s CPU     16.51s WALL (   72208 calls)
 
     PWSCF        :   1m50.62s CPU   1m52.82s WALL

 
   This run was terminated on:  23:42:28  23Dec2021            

=------------------------------------------------------------------------------=
   JOB DONE.
=------------------------------------------------------------------------------=
