
     Program PWSCF v.6.4 starts on 23Dec2021 at 22:58:50 

     This program is part of the open-source Quantum ESPRESSO suite
     for quantum simulation of materials; please cite
         "P. Giannozzi et al., J. Phys.:Condens. Matter 21 395502 (2009);
         "P. Giannozzi et al., J. Phys.:Condens. Matter 29 465901 (2017);
          URL http://www.quantum-espresso.org", 
     in publications or presentations arising from this work. More details at
     http://www.quantum-espresso.org/quote

     Parallel version (MPI), running on    40 processors

     MPI processes distributed on     1 nodes
     R & G space division:  proc/nbgrp/npool/nimage =      40
     Waiting for input...
     Reading input from standard input
Warning: card    &IONS ignored
Warning: card      ION_DYNAMICS = 'BFGS' ignored
Warning: card   / ignored
Warning: card    &CELL ignored
Warning: card      CELL_DYNAMICS = 'BFGS', ignored
Warning: card    / ignored

     Current dimensions of program PWSCF are:
     Max number of different atomic species (ntypx) = 10
     Max number of k-points (npk) =  40000
     Max angular momentum in pseudopotentials (lmaxx) =  3

     Subspace diagonalization in iterative solution of the eigenvalue problem:
     one sub-group per band group will be used
     scalapack distributed-memory algorithm (size of sub-group:  4*  4 procs)

 
     Parallelization info
     --------------------
     sticks:   dense  smooth     PW     G-vecs:    dense   smooth      PW
     Min         190      95     26                16131     5701     838
     Max         191      96     27                16138     5705     844
     Sum        7633    3803   1065               645395   228121   33635
 


     bravais-lattice index     =            0
     lattice parameter (alat)  =      16.3124  a.u.
     unit-cell volume          =    5594.7102 (a.u.)^3
     number of atoms/cell      =           27
     number of atomic types    =            2
     number of electrons       =       162.00
     number of Kohn-Sham states=           97
     kinetic-energy cutoff     =      45.0000  Ry
     charge density cutoff     =     360.0000  Ry
     convergence threshold     =      1.0E-06
     mixing beta               =       0.7000
     number of iterations used =            8  local-TF  mixing
     Exchange-correlation      = SLA PW GGX GGC ( 1  4  2  2 0 0)

     celldm(1)=  16.312435  celldm(2)=   0.000000  celldm(3)=   0.000000
     celldm(4)=   0.000000  celldm(5)=   0.000000  celldm(6)=   0.000000

     crystal axes: (cart. coord. in units of alat)
               a(1) = (   1.000000   0.000000   0.000000 )  
               a(2) = (  -0.054478   1.000312   0.000000 )  
               a(3) = (  -0.696103  -0.017071   1.288503 )  

     reciprocal axes: (cart. coord. in units 2 pi/alat)
               b(1) = (  1.000000  0.054461  0.540963 )  
               b(2) = (  0.000000  0.999688  0.013244 )  
               b(3) = (  0.000000  0.000000  0.776094 )  


     PseudoPot. # 1 for Mo read from file:
     ~/pseudo/Mo.pw91-n-van.UPF
     MD5 check sum: Not computed, couldn't open file
     Pseudo is Ultrasoft + core correction, Zval =  6.0
     Generated by new atomic code, or converted to UPF format
     Using radial grid of  965 points,  3 beta functions with: 
                l(1) =   1
                l(2) =   2
                l(3) =   2
     Q(r) pseudized with  8 coefficients,  rinner =    1.000   1.000   1.000
                                                       1.200   1.200

     PseudoPot. # 2 for S  read from file:
     ~/pseudo/S.pw91-van_ak.UPF
     MD5 check sum: Not computed, couldn't open file
     Pseudo is Ultrasoft, Zval =  6.0
     Generated by new atomic code, or converted to UPF format
     Using radial grid of  811 points,  6 beta functions with: 
                l(1) =   0
                l(2) =   0
                l(3) =   1
                l(4) =   1
                l(5) =   2
                l(6) =   2
     Q(r) pseudized with  8 coefficients,  rinner =    1.100   1.100   1.100
                                                       1.100   1.100

     atomic species   valence    mass     pseudopotential
        Mo             6.00    95.50000     Mo( 1.00)
        S              6.00    32.06500     S ( 1.00)

     No symmetry found



   Cartesian axes

     site n.     atom                  positions (alat units)
         1           Mo  tau(   1) = (  -0.2071944   0.8112916   0.6068082  )
         2           Mo  tau(   2) = (  -0.1998094   0.2166196   0.3598861  )
         3           Mo  tau(   3) = (   0.5957222   0.0038295   0.6925407  )
         4           Mo  tau(   4) = (   0.0082677   0.4403718   0.2879060  )
         5           Mo  tau(   5) = (   0.8075570   0.3092133   0.0472016  )
         6           Mo  tau(   6) = (   0.7790462   0.6369770   0.0767620  )
         7           Mo  tau(   7) = (   0.2999070   0.7883628   0.6839732  )
         8           Mo  tau(   8) = (   0.0642427   0.5866844   0.5889625  )
         9           Mo  tau(   9) = (   0.7403604   0.9780048   0.1024800  )
        10           S   tau(  10) = (  -0.0536455   0.4642298   1.1973286  )
        11           S   tau(  11) = (   0.0740390   0.8601590   0.5638463  )
        12           S   tau(  12) = (   0.0089176   0.3017090   0.5362343  )
        13           S   tau(  13) = (   0.7654209   0.5498251   0.3354295  )
        14           S   tau(  14) = (  -0.1812708   0.5693633   0.7184138  )
        15           S   tau(  15) = (  -0.1870845   0.9550729   0.3663964  )
        16           S   tau(  16) = (   0.5924406   0.1808355   0.1750387  )
        17           S   tau(  17) = (   0.2496267   0.5476250   0.7786942  )
        18           S   tau(  18) = (   0.6046518   0.2378015   0.5608007  )
        19           S   tau(  19) = (   0.5475930   0.7922240   0.0886104  )
        20           S   tau(  20) = (   0.2428837   0.8148989   1.2687485  )
        21           S   tau(  21) = (   0.3402896   0.9752056   0.8644192  )
        22           S   tau(  22) = (  -0.2297505   0.9701839   0.8175023  )
        23           S   tau(  23) = (   0.0207869   0.4942325   0.0152140  )
        24           S   tau(  24) = (   0.1093751   0.1039871   1.1403334  )
        25           S   tau(  25) = (   0.5211701   0.7942706   0.5309514  )
        26           S   tau(  26) = (   0.0457405   0.1841246   0.1793065  )
        27           S   tau(  27) = (   0.2306528   0.5707483   0.3626000  )

     number of k points=     8  Marzari-Vanderbilt smearing, width (Ry)=  0.0200
                       cart. coord. in units 2pi/alat
        k(    1) = (   0.0000000   0.0000000   0.0000000), wk =   0.2500000
        k(    2) = (   0.0000000   0.0000000  -0.3880471), wk =   0.2500000
        k(    3) = (   0.0000000  -0.4998439  -0.0066222), wk =   0.2500000
        k(    4) = (   0.0000000  -0.4998439  -0.3946693), wk =   0.2500000
        k(    5) = (  -0.5000000  -0.0272307  -0.2704815), wk =   0.2500000
        k(    6) = (  -0.5000000  -0.0272307  -0.6585287), wk =   0.2500000
        k(    7) = (  -0.5000000  -0.5270746  -0.2771037), wk =   0.2500000
        k(    8) = (  -0.5000000  -0.5270746  -0.6651508), wk =   0.2500000

     Dense  grid:   645395 G-vectors     FFT dimensions: ( 100, 100, 150)

     Smooth grid:   228121 G-vectors     FFT dimensions: (  72,  72, 108)

     Estimated max dynamical RAM per process >      97.53 MB

     Estimated total dynamical RAM >       3.81 GB

     Initial potential from superposition of free atoms

     starting charge  161.98581, renormalised to  162.00000
     Starting wfcs are  153 randomized atomic wfcs

     total cpu time spent up to now is        5.1 secs

     Self-consistent Calculation

     iteration #  1     ecut=    45.00 Ry     beta= 0.70
     Davidson diagonalization with overlap
     ethr =  1.00E-02,  avg # of iterations =  2.0

     total cpu time spent up to now is       12.3 secs

     total energy              =    -631.99369906 Ry
     Harris-Foulkes estimate   =    -634.19457437 Ry
     estimated scf accuracy    <       5.97402272 Ry

     iteration #  2     ecut=    45.00 Ry     beta= 0.70
     Davidson diagonalization with overlap
     ethr =  3.69E-03,  avg # of iterations =  2.0

     total cpu time spent up to now is       19.0 secs

     total energy              =    -632.92479188 Ry
     Harris-Foulkes estimate   =    -633.34094324 Ry
     estimated scf accuracy    <       2.29383560 Ry

     iteration #  3     ecut=    45.00 Ry     beta= 0.70
     Davidson diagonalization with overlap
     ethr =  1.42E-03,  avg # of iterations =  1.0

     total cpu time spent up to now is       24.5 secs

     total energy              =    -633.10869722 Ry
     Harris-Foulkes estimate   =    -633.15225019 Ry
     estimated scf accuracy    <       0.36465426 Ry

     iteration #  4     ecut=    45.00 Ry     beta= 0.70
     Davidson diagonalization with overlap
     ethr =  2.25E-04,  avg # of iterations =  2.0

     total cpu time spent up to now is       30.4 secs

     total energy              =    -633.12127437 Ry
     Harris-Foulkes estimate   =    -633.14293584 Ry
     estimated scf accuracy    <       0.07335416 Ry

     iteration #  5     ecut=    45.00 Ry     beta= 0.70
     Davidson diagonalization with overlap
     ethr =  4.53E-05,  avg # of iterations =  3.9

     total cpu time spent up to now is       38.7 secs

     total energy              =    -633.13476021 Ry
     Harris-Foulkes estimate   =    -633.14140855 Ry
     estimated scf accuracy    <       0.04058867 Ry

     iteration #  6     ecut=    45.00 Ry     beta= 0.70
     Davidson diagonalization with overlap
     ethr =  2.51E-05,  avg # of iterations =  3.0

     total cpu time spent up to now is       44.9 secs

     total energy              =    -633.13716733 Ry
     Harris-Foulkes estimate   =    -633.13787852 Ry
     estimated scf accuracy    <       0.00339745 Ry

     iteration #  7     ecut=    45.00 Ry     beta= 0.70
     Davidson diagonalization with overlap
     ethr =  2.10E-06,  avg # of iterations = 10.1

     total cpu time spent up to now is       56.8 secs

     total energy              =    -633.13728216 Ry
     Harris-Foulkes estimate   =    -633.13789975 Ry
     estimated scf accuracy    <       0.00260954 Ry

     iteration #  8     ecut=    45.00 Ry     beta= 0.70
     Davidson diagonalization with overlap
     ethr =  1.61E-06,  avg # of iterations =  1.1

     total cpu time spent up to now is       62.3 secs

     total energy              =    -633.13717880 Ry
     Harris-Foulkes estimate   =    -633.13747318 Ry
     estimated scf accuracy    <       0.00060205 Ry

     iteration #  9     ecut=    45.00 Ry     beta= 0.70
     Davidson diagonalization with overlap
     ethr =  3.72E-07,  avg # of iterations =  4.1

     total cpu time spent up to now is       69.9 secs

     total energy              =    -633.13722512 Ry
     Harris-Foulkes estimate   =    -633.13729542 Ry
     estimated scf accuracy    <       0.00053309 Ry

     iteration # 10     ecut=    45.00 Ry     beta= 0.70
     Davidson diagonalization with overlap
     ethr =  3.29E-07,  avg # of iterations =  1.0

     total cpu time spent up to now is       76.1 secs

     total energy              =    -633.13721004 Ry
     Harris-Foulkes estimate   =    -633.13724517 Ry
     estimated scf accuracy    <       0.00014686 Ry

     iteration # 11     ecut=    45.00 Ry     beta= 0.70
     Davidson diagonalization with overlap
     ethr =  9.07E-08,  avg # of iterations =  4.0

     total cpu time spent up to now is       84.0 secs

     total energy              =    -633.13722595 Ry
     Harris-Foulkes estimate   =    -633.13723397 Ry
     estimated scf accuracy    <       0.00003390 Ry

     iteration # 12     ecut=    45.00 Ry     beta= 0.70
     Davidson diagonalization with overlap
     ethr =  2.09E-08,  avg # of iterations =  2.9

     total cpu time spent up to now is       90.3 secs

     total energy              =    -633.13722871 Ry
     Harris-Foulkes estimate   =    -633.13722994 Ry
     estimated scf accuracy    <       0.00000290 Ry

     iteration # 13     ecut=    45.00 Ry     beta= 0.70
     Davidson diagonalization with overlap
     ethr =  1.79E-09,  avg # of iterations =  4.6

     total cpu time spent up to now is       99.9 secs

     total energy              =    -633.13722928 Ry
     Harris-Foulkes estimate   =    -633.13722997 Ry
     estimated scf accuracy    <       0.00000475 Ry

     iteration # 14     ecut=    45.00 Ry     beta= 0.70
     Davidson diagonalization with overlap
     ethr =  1.79E-09,  avg # of iterations =  2.0

     total cpu time spent up to now is      105.7 secs

     End of self-consistent calculation

          k = 0.0000 0.0000 0.0000 ( 28511 PWs)   bands (ev):

   -11.1873 -10.6653 -10.4509 -10.3131 -10.2778 -10.0549  -9.9708  -9.9347
    -9.8865  -9.7877  -9.6908  -9.6610  -9.5587  -9.4886  -9.4348  -9.3770
    -9.3351  -9.2742  -3.2618  -2.7392  -2.6639  -2.5239  -2.4984  -2.2988
    -2.2660  -2.0642  -1.9547  -1.8606  -1.7851  -1.6677  -1.6271  -1.5863
    -1.5208  -1.4340  -1.4176  -1.3942  -1.2660  -1.1699  -1.1153  -1.0468
    -1.0068  -0.9939  -0.9423  -0.8887  -0.8208  -0.7647  -0.7087  -0.6703
    -0.6109  -0.5585  -0.4667  -0.4039  -0.3002  -0.2490  -0.2272  -0.1562
    -0.0871   0.1570   0.2151   0.2739   0.3460   0.4041   0.5393   0.6048
     0.6768   0.7679   0.9173   0.9773   1.2163   1.3508   1.4049   1.5871
     1.8370   2.0308   2.1702   2.1938   2.2726   2.4107   2.5246   2.5729
     2.7326   2.8380   2.9445   3.0283   3.0760   3.2343   3.4156   3.6018
     3.7251   3.7597   3.8706   4.0400   4.1100   4.1776   4.1997   4.4601
     4.4774

          k = 0.0000 0.0000-0.3880 ( 28540 PWs)   bands (ev):

   -11.1840 -10.6748 -10.4497 -10.3142 -10.2727 -10.0595  -9.9717  -9.9318
    -9.8799  -9.7930  -9.6938  -9.6543  -9.5580  -9.4813  -9.4384  -9.3807
    -9.3300  -9.2811  -3.2621  -2.7400  -2.6549  -2.5523  -2.4917  -2.3001
    -2.2571  -2.0819  -1.9689  -1.8641  -1.7620  -1.6375  -1.6239  -1.6021
    -1.5070  -1.4458  -1.3984  -1.3537  -1.2717  -1.1737  -1.1372  -1.0705
    -1.0201  -0.9874  -0.9317  -0.8629  -0.8308  -0.7613  -0.7171  -0.6459
    -0.5955  -0.5653  -0.5061  -0.4500  -0.3287  -0.2622  -0.1896  -0.1680
    -0.0481   0.1685   0.2203   0.2620   0.3589   0.4190   0.4937   0.5824
     0.6881   0.7676   0.9061   1.0659   1.2125   1.2964   1.4360   1.5553
     1.8199   2.0391   2.1405   2.2034   2.3146   2.4169   2.4860   2.5807
     2.7464   2.8503   2.9294   3.0683   3.0789   3.2198   3.4635   3.6186
     3.6901   3.7812   3.8655   4.0291   4.0811   4.1621   4.2017   4.4589
     4.5437

          k = 0.0000-0.4998-0.0066 ( 28494 PWs)   bands (ev):

   -11.0760 -10.7793 -10.4445 -10.3601 -10.2168 -10.0835 -10.0029  -9.9452
    -9.8810  -9.8042  -9.7357  -9.6702  -9.5380  -9.5055  -9.4526  -9.3717
    -9.2999  -9.1856  -3.2119  -2.6993  -2.5809  -2.5213  -2.2836  -2.2642
    -2.1684  -2.0843  -2.0374  -1.9150  -1.8004  -1.7701  -1.6910  -1.5809
    -1.5690  -1.4762  -1.4009  -1.3668  -1.3216  -1.2452  -1.1456  -1.0882
    -1.0039  -0.9754  -0.9231  -0.8711  -0.7706  -0.7467  -0.6975  -0.6437
    -0.6192  -0.5247  -0.4557  -0.3799  -0.2618  -0.2122  -0.1330  -0.0883
    -0.0455   0.0544   0.1152   0.1495   0.2145   0.3763   0.4208   0.4963
     0.6556   0.7913   0.8987   1.0378   1.1875   1.2940   1.3853   1.6040
     1.8764   1.8949   2.0120   2.1225   2.2596   2.4850   2.5022   2.6473
     2.7216   2.8307   2.9127   3.0916   3.1678   3.2896   3.4617   3.6061
     3.6609   3.7954   3.8278   4.0002   4.0854   4.2178   4.3514   4.4049
     4.4841

          k = 0.0000-0.4998-0.3947 ( 28532 PWs)   bands (ev):

   -11.0737 -10.7785 -10.4527 -10.3616 -10.2206 -10.0516 -10.0210  -9.9484
    -9.8914  -9.8176  -9.7177  -9.6684  -9.5241  -9.4964  -9.4574  -9.3719
    -9.3157  -9.1838  -3.2117  -2.6931  -2.5805  -2.5118  -2.3293  -2.2530
    -2.1459  -2.0906  -2.0460  -1.9172  -1.7888  -1.7424  -1.7045  -1.6060
    -1.5707  -1.4468  -1.4315  -1.3572  -1.3386  -1.2268  -1.1557  -1.0884
    -0.9834  -0.9463  -0.9273  -0.8885  -0.8335  -0.7461  -0.6942  -0.6493
    -0.5768  -0.5323  -0.4635  -0.3536  -0.2931  -0.2052  -0.1416  -0.0707
    -0.0439   0.0308   0.1454   0.1655   0.2446   0.3638   0.3947   0.5034
     0.6707   0.7728   0.9626   1.0289   1.2061   1.2188   1.3434   1.6391
     1.8647   1.8941   2.0196   2.1109   2.2603   2.4712   2.5304   2.6073
     2.7337   2.8341   2.9482   3.1125   3.2062   3.2904   3.4653   3.5707
     3.6801   3.7881   3.8490   3.9750   4.0212   4.2033   4.3545   4.3874
     4.5223

          k =-0.5000-0.0272-0.2705 ( 28556 PWs)   bands (ev):

   -11.1410 -10.6119 -10.5813 -10.3606 -10.2202 -10.0625  -9.9853  -9.9293
    -9.8602  -9.7905  -9.6992  -9.6524  -9.5614  -9.4695  -9.4421  -9.3793
    -9.3359  -9.2765  -3.2020  -2.8626  -2.5862  -2.5284  -2.4269  -2.3582
    -2.2247  -2.1291  -1.9725  -1.9300  -1.8531  -1.6667  -1.6369  -1.5975
    -1.5358  -1.4198  -1.4040  -1.2825  -1.1596  -1.1374  -1.0856  -1.0554
    -1.0219  -0.9566  -0.9193  -0.8251  -0.8023  -0.7849  -0.7423  -0.7138
    -0.5826  -0.5653  -0.5083  -0.4207  -0.3153  -0.2425  -0.1164  -0.0474
     0.0168   0.1096   0.1704   0.1894   0.2623   0.4590   0.5208   0.5460
     0.6324   0.7502   0.8577   1.0309   1.2156   1.2817   1.5471   1.5610
     1.8312   1.9205   2.0665   2.1430   2.3027   2.4271   2.5049   2.5612
     2.6935   2.9116   3.0005   3.0665   3.1495   3.2717   3.3929   3.5057
     3.6473   3.8394   3.8908   4.0012   4.0540   4.1270   4.1537   4.3297
     4.5368

          k =-0.5000-0.0272-0.6585 ( 28528 PWs)   bands (ev):

   -11.1423 -10.6167 -10.5738 -10.3569 -10.2221 -10.0654  -9.9738  -9.9379
    -9.8749  -9.7780  -9.6949  -9.6606  -9.5573  -9.4689  -9.4451  -9.3769
    -9.3355  -9.2782  -3.2029  -2.8627  -2.5754  -2.5300  -2.4272  -2.3627
    -2.2284  -2.1382  -1.9835  -1.9239  -1.8656  -1.6744  -1.5935  -1.5592
    -1.5304  -1.4142  -1.3607  -1.3197  -1.2267  -1.1562  -1.1022  -1.0366
    -1.0022  -0.9824  -0.9400  -0.8474  -0.8252  -0.7746  -0.7194  -0.6613
    -0.6209  -0.5546  -0.4815  -0.4181  -0.3406  -0.1869  -0.1313  -0.0076
     0.0297   0.0604   0.1477   0.2033   0.2710   0.4879   0.5176   0.5613
     0.6332   0.7668   0.8185   1.0109   1.2218   1.2317   1.5074   1.6370
     1.7659   1.9655   2.0269   2.1511   2.3098   2.4068   2.5399   2.6050
     2.7023   2.8902   3.0051   3.0839   3.1334   3.2835   3.4342   3.4606
     3.6313   3.8392   3.8669   3.9627   4.0691   4.1005   4.1667   4.3428
     4.5289

          k =-0.5000-0.5271-0.2771 ( 28506 PWs)   bands (ev):

   -11.0201 -10.7413 -10.5827 -10.3463 -10.2282 -10.0578 -10.0107  -9.9361
    -9.8807  -9.8168  -9.7345  -9.6673  -9.5401  -9.4810  -9.4705  -9.3624
    -9.3021  -9.1833  -3.1555  -2.8138  -2.5262  -2.5000  -2.2982  -2.2275
    -2.1720  -2.0885  -2.0078  -1.9060  -1.8818  -1.7937  -1.7267  -1.6252
    -1.5660  -1.5104  -1.4815  -1.2967  -1.2511  -1.1441  -1.0888  -1.0763
    -0.9846  -0.9648  -0.8704  -0.8462  -0.8069  -0.7916  -0.7368  -0.6798
    -0.5694  -0.5237  -0.4389  -0.3429  -0.2833  -0.2706  -0.1253  -0.0420
     0.0210   0.0462   0.1605   0.2247   0.2732   0.3324   0.4545   0.5086
     0.6145   0.6844   0.9374   0.9709   1.1302   1.2533   1.3455   1.5142
     1.8434   1.8625   2.0131   2.0612   2.2916   2.4810   2.5878   2.6503
     2.7001   2.8116   3.0186   3.0760   3.1591   3.2335   3.4909   3.5508
     3.6712   3.8123   3.9128   3.9257   4.0412   4.1770   4.3426   4.3892
     4.5254

          k =-0.5000-0.5271-0.6652 ( 28454 PWs)   bands (ev):

   -11.0207 -10.7425 -10.5831 -10.3428 -10.2230 -10.0607 -10.0230  -9.9323
    -9.8707  -9.8028  -9.7497  -9.6756  -9.5337  -9.4881  -9.4680  -9.3567
    -9.3055  -9.1833  -3.1552  -2.8144  -2.5323  -2.5204  -2.2890  -2.2222
    -2.1559  -2.0917  -2.0113  -1.9536  -1.8652  -1.7983  -1.7284  -1.6171
    -1.5624  -1.4932  -1.4074  -1.3000  -1.2391  -1.1446  -1.1068  -1.0562
    -1.0031  -0.9424  -0.9007  -0.8548  -0.8388  -0.7989  -0.7277  -0.6840
    -0.5576  -0.5204  -0.4380  -0.3247  -0.3052  -0.2338  -0.1482  -0.0772
     0.0444   0.0585   0.1219   0.2317   0.2790   0.3364   0.4380   0.4675
     0.6232   0.7102   0.9309   0.9737   1.1593   1.2563   1.2867   1.5395
     1.8323   1.8579   2.0244   2.0525   2.2913   2.4730   2.6195   2.6843
     2.6919   2.8182   3.0017   3.1020   3.1938   3.2062   3.4619   3.5790
     3.6331   3.8119   3.8661   3.9441   4.0417   4.1736   4.2633   4.4196
     4.5228

     the Fermi energy is     2.7894 ev

!    total energy              =    -633.13722903 Ry
     Harris-Foulkes estimate   =    -633.13722951 Ry
     estimated scf accuracy    <       0.00000055 Ry

     The total energy is the sum of the following terms:

     one-electron contribution =    -380.78796649 Ry
     hartree contribution      =     259.61215723 Ry
     xc contribution           =    -249.72670475 Ry
     ewald contribution        =    -262.23355520 Ry
     smearing contrib. (-TS)   =      -0.00115983 Ry

     convergence has been achieved in  14 iterations

     Forces acting on atoms (cartesian axes, Ry/au):

     atom    1 type  1   force =     0.00943653   -0.02287874    0.01181836
     atom    2 type  1   force =     0.01571879   -0.01094467   -0.03820591
     atom    3 type  1   force =     0.02354270    0.08019100   -0.01306561
     atom    4 type  1   force =     0.03213868    0.00647417   -0.03593975
     atom    5 type  1   force =     0.01447372   -0.03828524   -0.04369456
     atom    6 type  1   force =     0.01693555    0.03112505    0.01226511
     atom    7 type  1   force =    -0.01033734   -0.01746281    0.02144648
     atom    8 type  1   force =    -0.02095937   -0.02117227    0.00308549
     atom    9 type  1   force =    -0.01309232   -0.00822883   -0.02300008
     atom   10 type  2   force =    -0.00420429   -0.00795707   -0.00298661
     atom   11 type  2   force =     0.01092004    0.02578914   -0.02091252
     atom   12 type  2   force =     0.01399202    0.01512881    0.01134867
     atom   13 type  2   force =    -0.03318191   -0.00635691    0.00956377
     atom   14 type  2   force =    -0.00162159   -0.00435144   -0.01336682
     atom   15 type  2   force =     0.00371232   -0.03055282    0.02575070
     atom   16 type  2   force =    -0.01050338    0.00974908    0.00091460
     atom   17 type  2   force =     0.00597717   -0.02214718    0.00979101
     atom   18 type  2   force =    -0.02114189   -0.02810271    0.03577315
     atom   19 type  2   force =    -0.00144113    0.01771442    0.01297440
     atom   20 type  2   force =     0.00139669   -0.00005056    0.00383059
     atom   21 type  2   force =    -0.00279338    0.01132722    0.01771152
     atom   22 type  2   force =     0.03070235    0.01711897    0.02380704
     atom   23 type  2   force =     0.01046646   -0.00284102   -0.00346219
     atom   24 type  2   force =     0.00284093    0.01018592    0.03523016
     atom   25 type  2   force =    -0.02547295   -0.01607159   -0.04561752
     atom   26 type  2   force =    -0.03495735    0.01172328   -0.00090116
     atom   27 type  2   force =    -0.01254706    0.00087679    0.00584166

     Total force =     0.191463     Total SCF correction =     0.001328
 
     init_run     :      4.25s CPU      4.39s WALL (       1 calls)
     electrons    :     97.99s CPU    100.59s WALL (       1 calls)
     forces       :      2.34s CPU      2.42s WALL (       1 calls)

     Called by init_run:
     wfcinit      :      2.55s CPU      2.60s WALL (       1 calls)
     potinit      :      0.44s CPU      0.44s WALL (       1 calls)
     hinit0       :      0.61s CPU      0.63s WALL (       1 calls)

     Called by electrons:
     c_bands      :     77.31s CPU     78.36s WALL (      14 calls)
     sum_band     :     15.14s CPU     16.19s WALL (      14 calls)
     v_of_rho     :      1.00s CPU      1.05s WALL (      15 calls)
     newd         :      3.47s CPU      3.87s WALL (      15 calls)
     mix_rho      :      1.21s CPU      1.28s WALL (      14 calls)

     Called by c_bands:
     init_us_2    :      2.06s CPU      2.08s WALL (     240 calls)
     cegterg      :     71.59s CPU     72.59s WALL (     112 calls)

     Called by sum_band:
     sum_band:bec :      0.08s CPU      0.08s WALL (     112 calls)
     addusdens    :      5.18s CPU      6.01s WALL (      14 calls)

     Called by *egterg:
     h_psi        :     41.55s CPU     42.31s WALL (     470 calls)
     s_psi        :      6.72s CPU      6.74s WALL (     470 calls)
     g_psi        :      0.15s CPU      0.15s WALL (     350 calls)
     cdiaghg      :     13.30s CPU     13.47s WALL (     462 calls)

     Called by h_psi:
     h_psi:pot    :     41.13s CPU     41.87s WALL (     470 calls)
     h_psi:calbec :      7.79s CPU      8.05s WALL (     470 calls)
     vloc_psi     :     26.27s CPU     26.72s WALL (     470 calls)
     add_vuspsi   :      7.06s CPU      7.09s WALL (     470 calls)

     General routines
     calbec       :     11.49s CPU     11.87s WALL (     614 calls)
     fft          :      0.98s CPU      1.05s WALL (     204 calls)
     ffts         :      0.57s CPU      0.62s WALL (     520 calls)
     fftw         :     29.10s CPU     29.59s WALL (   65302 calls)
     interpolate  :      0.09s CPU      0.09s WALL (      15 calls)
 
     Parallel routines
     fft_scatt_xy :      2.56s CPU      2.61s WALL (   66026 calls)
     fft_scatt_yz :     14.09s CPU     14.43s WALL (   66026 calls)
 
     PWSCF        :   1m45.30s CPU   1m48.19s WALL

 
   This run was terminated on:  23: 0:39  23Dec2021            

=------------------------------------------------------------------------------=
   JOB DONE.
=------------------------------------------------------------------------------=
