
     Program PWSCF v.6.4 starts on 25Dec2021 at  0:11:35 

     This program is part of the open-source Quantum ESPRESSO suite
     for quantum simulation of materials; please cite
         "P. Giannozzi et al., J. Phys.:Condens. Matter 21 395502 (2009);
         "P. Giannozzi et al., J. Phys.:Condens. Matter 29 465901 (2017);
          URL http://www.quantum-espresso.org", 
     in publications or presentations arising from this work. More details at
     http://www.quantum-espresso.org/quote

     Parallel version (MPI), running on    40 processors

     MPI processes distributed on     1 nodes
     R & G space division:  proc/nbgrp/npool/nimage =      40
     Waiting for input...
     Reading input from standard input
Warning: card    &IONS ignored
Warning: card      ION_DYNAMICS = 'BFGS' ignored
Warning: card   / ignored
Warning: card    &CELL ignored
Warning: card      CELL_DYNAMICS = 'BFGS', ignored
Warning: card    / ignored

     Current dimensions of program PWSCF are:
     Max number of different atomic species (ntypx) = 10
     Max number of k-points (npk) =  40000
     Max angular momentum in pseudopotentials (lmaxx) =  3

     Subspace diagonalization in iterative solution of the eigenvalue problem:
     one sub-group per band group will be used
     scalapack distributed-memory algorithm (size of sub-group:  4*  4 procs)

 
     Parallelization info
     --------------------
     sticks:   dense  smooth     PW     G-vecs:    dense   smooth      PW
     Min          91      45     12                15619     5515     796
     Max          92      46     13                15644     5534     815
     Sum        3667    1813    511               625065   220861   32249
 


     bravais-lattice index     =            0
     lattice parameter (alat)  =      12.1536  a.u.
     unit-cell volume          =    5418.4329 (a.u.)^3
     number of atoms/cell      =           36
     number of atomic types    =            2
     number of electrons       =       216.00
     number of Kohn-Sham states=          130
     kinetic-energy cutoff     =      45.0000  Ry
     charge density cutoff     =     360.0000  Ry
     convergence threshold     =      1.0E-06
     mixing beta               =       0.7000
     number of iterations used =            8  local-TF  mixing
     Exchange-correlation      = SLA PW GGX GGC ( 1  4  2  2 0 0)

     celldm(1)=  12.153560  celldm(2)=   0.000000  celldm(3)=   0.000000
     celldm(4)=   0.000000  celldm(5)=   0.000000  celldm(6)=   0.000000

     crystal axes: (cart. coord. in units of alat)
               a(1) = (   1.000000   0.000000   0.000000 )  
               a(2) = (  -0.500000   0.866026   0.000000 )  
               a(3) = (   0.000000   0.000000   3.485238 )  

     reciprocal axes: (cart. coord. in units 2 pi/alat)
               b(1) = (  1.000000  0.577350  0.000000 )  
               b(2) = (  0.000000  1.154700  0.000000 )  
               b(3) = (  0.000000  0.000000  0.286924 )  


     PseudoPot. # 1 for Mo read from file:
     ~/pseudo/Mo.pw91-n-van.UPF
     MD5 check sum: Not computed, couldn't open file
     Pseudo is Ultrasoft + core correction, Zval =  6.0
     Generated by new atomic code, or converted to UPF format
     Using radial grid of  965 points,  3 beta functions with: 
                l(1) =   1
                l(2) =   2
                l(3) =   2
     Q(r) pseudized with  8 coefficients,  rinner =    1.000   1.000   1.000
                                                       1.200   1.200

     PseudoPot. # 2 for S  read from file:
     ~/pseudo/S.pw91-van_ak.UPF
     MD5 check sum: Not computed, couldn't open file
     Pseudo is Ultrasoft, Zval =  6.0
     Generated by new atomic code, or converted to UPF format
     Using radial grid of  811 points,  6 beta functions with: 
                l(1) =   0
                l(2) =   0
                l(3) =   1
                l(4) =   1
                l(5) =   2
                l(6) =   2
     Q(r) pseudized with  8 coefficients,  rinner =    1.100   1.100   1.100
                                                       1.100   1.100

     atomic species   valence    mass     pseudopotential
        Mo             6.00    95.50000     Mo( 1.00)
        S              6.00    32.06500     S ( 1.00)

     No symmetry found



   Cartesian axes

     site n.     atom                  positions (alat units)
         1           Mo  tau(   1) = (   0.2363752   0.7270042   1.5926998  )
         2           Mo  tau(   2) = (   0.4812878   0.0041347   2.7062305  )
         3           Mo  tau(   3) = (   0.3754028   0.6428620   0.3257556  )
         4           Mo  tau(   4) = (   0.4920092   0.2891386   1.6023182  )
         5           Mo  tau(   5) = (   0.7419733   0.4337785   2.7086824  )
         6           Mo  tau(   6) = (   0.6333360   0.2190913   0.3289829  )
         7           Mo  tau(   7) = (   0.9845763   0.0124941   2.7032712  )
         8           Mo  tau(   8) = (  -0.0136977   0.2919778   1.5938129  )
         9           Mo  tau(   9) = (  -0.2582784   0.7269724   1.5935672  )
        10           Mo  tau(  10) = (   0.2432486   0.4448271   2.7043236  )
        11           Mo  tau(  11) = (   0.1262187   0.2077289   0.3293627  )
        12           Mo  tau(  12) = (  -0.1249872   0.6492735   0.3416050  )
        13           S   tau(  13) = (   0.2445980   0.7367101   2.4659658  )
        14           S   tau(  14) = (   0.2342083   0.7220419   2.9544073  )
        15           S   tau(  15) = (   0.3733129   0.0752646   0.0781594  )
        16           S   tau(  16) = (   0.3662875   0.0732274   0.5808605  )
        17           S   tau(  17) = (   0.4963547   0.5894491   1.3568882  )
        18           S   tau(  18) = (   0.4860762   0.5931460   1.8410056  )
        19           S   tau(  19) = (   0.4901612   0.2991473   2.4745227  )
        20           S   tau(  20) = (   0.4888360   0.2970307   2.9658820  )
        21           S   tau(  21) = (   0.6198232   0.5122925   0.0899070  )
        22           S   tau(  22) = (   0.6238312   0.5042686   0.5869070  )
        23           S   tau(  23) = (   0.7466128   0.1547782   1.3580431  )
        24           S   tau(  24) = (   0.7407075   0.1491457   1.8388790  )
        25           S   tau(  25) = (   0.8674302   0.0774371   0.0853890  )
        26           S   tau(  26) = (   0.8777467   0.0768860   0.5852620  )
        27           S   tau(  27) = (  -0.0168454   0.3012501   2.4728239  )
        28           S   tau(  28) = (  -0.0070412   0.3049327   2.9582672  )
        29           S   tau(  29) = (  -0.2605512   0.7315842   2.4747820  )
        30           S   tau(  30) = (  -0.2581235   0.7368823   2.9618923  )
        31           S   tau(  31) = (   0.1333050   0.5078912   0.0835232  )
        32           S   tau(  32) = (   0.1175134   0.5004406   0.5747790  )
        33           S   tau(  33) = (   0.2425062   0.1487220   1.3489606  )
        34           S   tau(  34) = (   0.2412728   0.1445448   1.8452395  )
        35           S   tau(  35) = (  -0.0093139   0.5946802   1.3537592  )
        36           S   tau(  36) = (  -0.0099238   0.5801424   1.8399889  )

     number of k points=     5  Marzari-Vanderbilt smearing, width (Ry)=  0.0200
                       cart. coord. in units 2pi/alat
        k(    1) = (   0.0000000   0.0000000   0.0000000), wk =   0.2222222
        k(    2) = (   0.0000000   0.3849001   0.0000000), wk =   0.4444444
        k(    3) = (   0.3333333   0.5773502   0.0000000), wk =   0.4444444
        k(    4) = (  -0.3333333   0.1924501   0.0000000), wk =   0.4444444
        k(    5) = (   0.3333333   0.1924501   0.0000000), wk =   0.4444444

     Dense  grid:   625065 G-vectors     FFT dimensions: (  75,  75, 256)

     Smooth grid:   220861 G-vectors     FFT dimensions: (  54,  54, 192)

     Estimated max dynamical RAM per process >      99.86 MB

     Estimated total dynamical RAM >       3.90 GB

     Initial potential from superposition of free atoms

     starting charge  215.98107, renormalised to  216.00000
     Starting wfcs are  204 randomized atomic wfcs

     total cpu time spent up to now is        5.0 secs

     Self-consistent Calculation

     iteration #  1     ecut=    45.00 Ry     beta= 0.70
     Davidson diagonalization with overlap
     ethr =  1.00E-02,  avg # of iterations =  2.0

     total cpu time spent up to now is       11.3 secs

     total energy              =    -844.16269377 Ry
     Harris-Foulkes estimate   =    -846.75978796 Ry
     estimated scf accuracy    <       6.64164830 Ry

     iteration #  2     ecut=    45.00 Ry     beta= 0.70
     Davidson diagonalization with overlap
     ethr =  3.07E-03,  avg # of iterations =  2.8

     total cpu time spent up to now is       17.2 secs

     total energy              =    -845.38627472 Ry
     Harris-Foulkes estimate   =    -845.54999996 Ry
     estimated scf accuracy    <       0.86135635 Ry

     iteration #  3     ecut=    45.00 Ry     beta= 0.70
     Davidson diagonalization with overlap
     ethr =  3.99E-04,  avg # of iterations =  2.0

     total cpu time spent up to now is       22.3 secs

     total energy              =    -845.39284021 Ry
     Harris-Foulkes estimate   =    -845.46535223 Ry
     estimated scf accuracy    <       0.20592484 Ry

     iteration #  4     ecut=    45.00 Ry     beta= 0.70
     Davidson diagonalization with overlap
     ethr =  9.53E-05,  avg # of iterations =  5.4

     total cpu time spent up to now is       30.3 secs

     total energy              =    -845.44505444 Ry
     Harris-Foulkes estimate   =    -845.46874387 Ry
     estimated scf accuracy    <       0.10218264 Ry

     iteration #  5     ecut=    45.00 Ry     beta= 0.70
     Davidson diagonalization with overlap
     ethr =  4.73E-05,  avg # of iterations =  4.0

     total cpu time spent up to now is       36.1 secs

     total energy              =    -845.44962343 Ry
     Harris-Foulkes estimate   =    -845.45314257 Ry
     estimated scf accuracy    <       0.01029732 Ry

     iteration #  6     ecut=    45.00 Ry     beta= 0.70
     Davidson diagonalization with overlap
     ethr =  4.77E-06,  avg # of iterations =  6.6

     total cpu time spent up to now is       46.6 secs

     total energy              =    -845.45324146 Ry
     Harris-Foulkes estimate   =    -845.45534416 Ry
     estimated scf accuracy    <       0.00998680 Ry

     iteration #  7     ecut=    45.00 Ry     beta= 0.70
     Davidson diagonalization with overlap
     ethr =  4.62E-06,  avg # of iterations =  2.0

     total cpu time spent up to now is       51.5 secs

     total energy              =    -845.45380966 Ry
     Harris-Foulkes estimate   =    -845.45395325 Ry
     estimated scf accuracy    <       0.00126557 Ry

     iteration #  8     ecut=    45.00 Ry     beta= 0.70
     Davidson diagonalization with overlap
     ethr =  5.86E-07,  avg # of iterations =  3.6

     total cpu time spent up to now is       57.8 secs

     total energy              =    -845.45401362 Ry
     Harris-Foulkes estimate   =    -845.45403423 Ry
     estimated scf accuracy    <       0.00012824 Ry

     iteration #  9     ecut=    45.00 Ry     beta= 0.70
     Davidson diagonalization with overlap
     ethr =  5.94E-08,  avg # of iterations =  2.8

     total cpu time spent up to now is       64.1 secs

     total energy              =    -845.45400215 Ry
     Harris-Foulkes estimate   =    -845.45404509 Ry
     estimated scf accuracy    <       0.00017219 Ry

     iteration # 10     ecut=    45.00 Ry     beta= 0.70
     Davidson diagonalization with overlap
     ethr =  5.94E-08,  avg # of iterations =  2.8

     total cpu time spent up to now is       69.6 secs

     total energy              =    -845.45401846 Ry
     Harris-Foulkes estimate   =    -845.45402051 Ry
     estimated scf accuracy    <       0.00002307 Ry

     iteration # 11     ecut=    45.00 Ry     beta= 0.70
     Davidson diagonalization with overlap
     ethr =  1.07E-08,  avg # of iterations =  3.0

     total cpu time spent up to now is       75.3 secs

     total energy              =    -845.45401819 Ry
     Harris-Foulkes estimate   =    -845.45402175 Ry
     estimated scf accuracy    <       0.00001740 Ry

     iteration # 12     ecut=    45.00 Ry     beta= 0.70
     Davidson diagonalization with overlap
     ethr =  8.05E-09,  avg # of iterations =  2.0

     total cpu time spent up to now is       80.4 secs

     total energy              =    -845.45401999 Ry
     Harris-Foulkes estimate   =    -845.45402022 Ry
     estimated scf accuracy    <       0.00000431 Ry

     iteration # 13     ecut=    45.00 Ry     beta= 0.70
     Davidson diagonalization with overlap
     ethr =  1.99E-09,  avg # of iterations =  3.0

     total cpu time spent up to now is       85.9 secs

     total energy              =    -845.45401986 Ry
     Harris-Foulkes estimate   =    -845.45402041 Ry
     estimated scf accuracy    <       0.00000387 Ry

     iteration # 14     ecut=    45.00 Ry     beta= 0.70
     Davidson diagonalization with overlap
     ethr =  1.79E-09,  avg # of iterations =  1.0

     total cpu time spent up to now is       90.5 secs

     total energy              =    -845.45401968 Ry
     Harris-Foulkes estimate   =    -845.45402000 Ry
     estimated scf accuracy    <       0.00000142 Ry

     iteration # 15     ecut=    45.00 Ry     beta= 0.70
     Davidson diagonalization with overlap
     ethr =  6.57E-10,  avg # of iterations =  3.0

     total cpu time spent up to now is       96.1 secs

     End of self-consistent calculation

          k = 0.0000 0.0000 0.0000 ( 27553 PWs)   bands (ev):

    -8.7077  -8.6675  -8.5107  -7.4771  -7.4253  -7.3846  -7.0611  -7.0256
    -7.0099  -6.9758  -6.9089  -6.8423  -6.8380  -6.8032  -6.7109  -6.7102
    -6.6655  -6.6304  -6.6258  -6.5593  -6.5591  -6.5519  -6.5159  -6.4787
    -0.3543  -0.3407  -0.3288  -0.3124  -0.3021  -0.2538  -0.2090  -0.1888
    -0.1442  -0.1214  -0.0845   0.0209   0.6067   0.6282   0.6491   0.6828
     0.6966   0.7088   0.7402   0.7466   0.8037   1.2243   1.2766   1.3302
     1.3596   1.3960   1.4279   1.4366   1.4652   1.5690   2.0960   2.1236
     2.1628   2.1919   2.2042   2.3296   2.3315   2.3462   2.4925   2.6103
     2.6436   2.6784   2.7524   2.9055   2.9880   3.3425   3.3805   3.4454
     3.4869   3.5106   3.5246   3.5493   3.5529   3.5828   3.6175   3.6799
     3.7175   3.7880   3.8295   3.9696   3.9895   4.0389   4.1768   4.3240
     4.3312   4.3709   4.3841   4.4213   4.4389   4.4734   4.5157   4.6175
     4.6752   4.7074   4.7207   4.7655   4.7815   4.7958   4.8411   4.8960
     4.9485   5.2368   5.4537   5.5983   7.3062   7.3154   7.3274   7.3349
     7.3577   7.3866   7.4170   7.4212   7.4576   7.7847   7.8434   7.8587
     7.8710   7.8813   7.8848   7.9003   7.9217   7.9270   7.9349   7.9406
     7.9538   7.9674

          k = 0.0000 0.3849 0.0000 ( 27574 PWs)   bands (ev):

    -8.3481  -8.3091  -8.1538  -7.5194  -7.4708  -7.3235  -7.2999  -7.2545
    -7.1980  -7.0581  -6.9997  -6.9355  -6.9256  -6.8653  -6.8508  -6.8468
    -6.7809  -6.6843  -6.6308  -6.6247  -6.6163  -6.5992  -6.5502  -6.5113
     0.0685   0.1042   0.1250   0.1381   0.1576   0.1664   0.2380   0.2778
     0.3168   0.3212   0.3745   0.4390   0.5746   0.5942   0.6447   0.6600
     0.7397   0.7882   1.2283   1.2945   1.3707   1.4098   1.4616   1.5357
     1.5575   1.5761   1.5915   1.6365   1.6533   1.7632   1.8861   1.9866
     2.1097   2.1208   2.1430   2.1669   2.2435   2.2828   2.3465   2.3672
     2.4592   2.5672   2.6149   2.6648   2.7389   2.8799   3.0260   3.0421
     3.0706   3.0943   3.1168   3.1333   3.2024   3.2716   3.3483   3.4313
     3.4593   3.5832   3.6274   3.6469   3.6889   3.7271   3.7386   3.7549
     3.8123   3.8816   3.9870   3.9933   4.1594   4.1759   4.3012   4.4411
     4.4878   4.5263   4.5763   4.7401   4.8157   4.9043   4.9120   4.9179
     5.0030   5.0858   5.1721   5.2314   7.2369   7.3257   7.3395   7.3566
     7.3707   7.4000   7.4179   7.4320   7.4661   7.4850   7.5091   7.5684
     7.6259   7.6313   7.6607   7.7105   7.7678   7.7739   7.8180   7.8329
     7.8514   7.8664

          k = 0.3333 0.5774 0.0000 ( 27687 PWs)   bands (ev):

    -7.7871  -7.7786  -7.7215  -7.7110  -7.7014  -7.5872  -7.5697  -7.5587
    -7.4710  -7.0568  -7.0386  -6.9776  -6.9670  -6.9545  -6.9190  -6.9047
    -6.8880  -6.8438  -6.7857  -6.6763  -6.5101  -6.4617  -6.4316  -6.3628
     0.0207   0.0792   0.2448   0.3968   0.4329   0.4655   0.4847   0.5244
     0.6061   0.6678   0.6920   0.7586   0.8439   0.8904   0.9833   1.3419
     1.3627   1.4368   1.4694   1.4825   1.5051   1.5173   1.5935   1.6092
     1.6226   1.6757   1.7227   1.7327   1.7518   1.7678   1.7859   1.8001
     1.8176   1.8429   1.8583   1.8773   1.9337   1.9420   1.9942   2.1800
     2.1967   2.2275   2.2530   2.2737   2.3293   2.3472   2.4043   2.4441
     2.4919   2.5646   2.5902   3.1880   3.2440   3.2609   3.3445   3.3733
     3.3844   3.3915   3.4452   3.5059   3.5329   3.5595   3.6225   4.1164
     4.1872   4.2200   4.2579   4.2940   4.3129   4.3607   4.3795   4.4033
     4.5231   4.5919   4.6043   4.6144   4.6509   4.6582   4.6835   4.6977
     4.7627   5.2794   5.3354   5.4176   6.8408   6.9029   6.9803   7.0200
     7.0657   7.1009   7.1993   7.2196   7.2450   7.2650   7.2931   7.3468
     7.5676   7.6103   7.6320   7.6466   7.6686   7.6997   7.7130   7.7645
     7.7776   7.8762

          k =-0.3333 0.1925 0.0000 ( 27574 PWs)   bands (ev):

    -8.3455  -8.3059  -8.1452  -7.5098  -7.4510  -7.3053  -7.2891  -7.2560
    -7.2163  -7.0434  -7.0221  -7.0128  -6.8975  -6.8803  -6.8740  -6.8575
    -6.7913  -6.7184  -6.6802  -6.6515  -6.5536  -6.5448  -6.5142  -6.4739
     0.0720   0.1007   0.1047   0.1322   0.1663   0.1794   0.2244   0.2860
     0.3110   0.3558   0.3931   0.4443   0.5344   0.5592   0.6148   0.6264
     0.6385   0.7106   1.2239   1.2754   1.3526   1.4258   1.4694   1.5175
     1.5675   1.5929   1.6328   1.6526   1.6881   1.7316   1.8948   2.0087
     2.1158   2.1500   2.1734   2.1959   2.2570   2.3146   2.4003   2.4210
     2.4940   2.5033   2.5648   2.6431   2.8214   2.8910   3.0056   3.0145
     3.0614   3.0943   3.1082   3.1464   3.1778   3.3099   3.3720   3.4386
     3.5729   3.6042   3.6376   3.6533   3.6819   3.6975   3.7232   3.7375
     3.8079   3.8865   3.9799   3.9915   4.1409   4.1627   4.2875   4.3787
     4.4305   4.4535   4.4833   4.7582   4.7968   4.9033   4.9361   4.9572
     5.0177   5.0849   5.1262   5.2048   7.2470   7.3241   7.3484   7.3677
     7.3929   7.4149   7.4225   7.4337   7.4601   7.5011   7.5241   7.5537
     7.5999   7.6370   7.6883   7.8031   7.8098   7.8296   7.8694   7.8914
     7.9039   7.9352

          k = 0.3333 0.1925 0.0000 ( 27574 PWs)   bands (ev):

    -8.3443  -8.3013  -8.1512  -7.5149  -7.4449  -7.3440  -7.2907  -7.2619
    -7.1566  -7.0722  -7.0025  -6.9981  -6.9131  -6.8902  -6.8761  -6.8481
    -6.7864  -6.7540  -6.6192  -6.6128  -6.5799  -6.5665  -6.5300  -6.4815
     0.0670   0.0856   0.1064   0.1587   0.1667   0.1850   0.2420   0.2724
     0.3178   0.3288   0.3917   0.4422   0.5256   0.5314   0.5672   0.5838
     0.7056   0.7571   1.2361   1.2870   1.3782   1.4486   1.4774   1.5330
     1.5564   1.5855   1.5964   1.6284   1.6598   1.7646   1.8997   2.0285
     2.1315   2.1816   2.1894   2.1990   2.2421   2.2536   2.3659   2.4562
     2.5005   2.5431   2.6324   2.6513   2.6930   2.8740   2.9837   3.0102
     3.0573   3.0792   3.1134   3.1438   3.1877   3.4027   3.4250   3.4417
     3.4885   3.5733   3.6495   3.6593   3.6792   3.6959   3.7145   3.7506
     3.7806   3.8544   3.9842   3.9899   4.1328   4.1899   4.2828   4.3407
     4.3873   4.4269   4.6338   4.8051   4.8536   4.8700   4.8797   4.9302
     5.0380   5.0611   5.1472   5.1840   7.2911   7.3207   7.3517   7.3703
     7.3807   7.4085   7.4342   7.4388   7.4660   7.5155   7.5223   7.5721
     7.5885   7.6495   7.6791   7.7839   7.8135   7.8448   7.8788   7.8993
     7.9156   7.9554

     the Fermi energy is     5.5070 ev

!    total energy              =    -845.45401973 Ry
     Harris-Foulkes estimate   =    -845.45401989 Ry
     estimated scf accuracy    <       0.00000017 Ry

     The total energy is the sum of the following terms:

     one-electron contribution =    -298.64982240 Ry
     hartree contribution      =     265.17092170 Ry
     xc contribution           =    -334.22599784 Ry
     ewald contribution        =    -477.77107522 Ry
     smearing contrib. (-TS)   =       0.02195403 Ry

     convergence has been achieved in  15 iterations

     Forces acting on atoms (cartesian axes, Ry/au):

     atom    1 type  1   force =     0.02913695    0.01555438    0.03333188
     atom    2 type  1   force =     0.05886898    0.03559307    0.07004535
     atom    3 type  1   force =    -0.01096103    0.05758529    0.07812584
     atom    4 type  1   force =    -0.01977246    0.04643266   -0.01807264
     atom    5 type  1   force =    -0.03312345    0.06778863    0.08621097
     atom    6 type  1   force =    -0.06951039   -0.00547269    0.04255084
     atom    7 type  1   force =     0.02716148   -0.01034204    0.10119502
     atom    8 type  1   force =     0.05665041    0.02291840    0.02705831
     atom    9 type  1   force =    -0.00439955    0.01914923    0.04227007
     atom   10 type  1   force =    -0.02113478   -0.01445634    0.05982463
     atom   11 type  1   force =    -0.01549653    0.04843555   -0.00519035
     atom   12 type  1   force =    -0.01089335    0.01006402   -0.06103726
     atom   13 type  2   force =    -0.02891275   -0.01333615   -0.03563136
     atom   14 type  2   force =     0.00833420    0.02914559   -0.01539873
     atom   15 type  2   force =     0.01821803   -0.01723912    0.03204544
     atom   16 type  2   force =     0.03670827    0.00295452   -0.01144915
     atom   17 type  2   force =    -0.02164909   -0.03313982   -0.02250998
     atom   18 type  2   force =     0.00810303   -0.02764208   -0.00159338
     atom   19 type  2   force =     0.00067925   -0.01741563   -0.05381199
     atom   20 type  2   force =     0.00064985   -0.00746666   -0.04410248
     atom   21 type  2   force =     0.03954978   -0.01586303   -0.01633469
     atom   22 type  2   force =    -0.00308894   -0.00226006   -0.02639245
     atom   23 type  2   force =    -0.03213603   -0.01435022   -0.04349026
     atom   24 type  2   force =     0.00167627   -0.00811257    0.02088627
     atom   25 type  2   force =     0.02801099   -0.02495573   -0.01115166
     atom   26 type  2   force =    -0.00589446   -0.02677391   -0.03410068
     atom   27 type  2   force =     0.03092845   -0.00384905   -0.06219308
     atom   28 type  2   force =     0.00212763   -0.02067329   -0.01966869
     atom   29 type  2   force =    -0.02003525   -0.02233259   -0.05480304
     atom   30 type  2   force =    -0.02560407   -0.02204455   -0.03139511
     atom   31 type  2   force =    -0.03797510   -0.01976823    0.00862804
     atom   32 type  2   force =     0.03073847   -0.00721493    0.00459127
     atom   33 type  2   force =    -0.00020047    0.00989967    0.00618366
     atom   34 type  2   force =    -0.00834062    0.00918110   -0.01208805
     atom   35 type  2   force =    -0.00482035   -0.03993016   -0.03376735
     atom   36 type  2   force =    -0.00359336   -0.00006325    0.00123482

     Total force =     0.339052     Total SCF correction =     0.001156
 
     init_run     :      3.82s CPU      4.07s WALL (       1 calls)
     electrons    :     88.73s CPU     91.17s WALL (       1 calls)
     forces       :      1.96s CPU      2.02s WALL (       1 calls)

     Called by init_run:
     wfcinit      :      2.53s CPU      2.64s WALL (       1 calls)
     potinit      :      0.26s CPU      0.27s WALL (       1 calls)
     hinit0       :      0.42s CPU      0.47s WALL (       1 calls)

     Called by electrons:
     c_bands      :     69.67s CPU     70.55s WALL (      15 calls)
     sum_band     :     13.68s CPU     14.75s WALL (      15 calls)
     v_of_rho     :      1.02s CPU      1.06s WALL (      16 calls)
     newd         :      3.40s CPU      3.89s WALL (      16 calls)
     mix_rho      :      1.01s CPU      1.03s WALL (      15 calls)

     Called by c_bands:
     init_us_2    :      1.95s CPU      1.96s WALL (     160 calls)
     cegterg      :     64.63s CPU     65.49s WALL (      75 calls)

     Called by sum_band:
     sum_band:bec :      0.13s CPU      0.14s WALL (      75 calls)
     addusdens    :      5.12s CPU      6.00s WALL (      15 calls)

     Called by *egterg:
     h_psi        :     33.76s CPU     34.38s WALL (     310 calls)
     s_psi        :      6.76s CPU      6.77s WALL (     310 calls)
     g_psi        :      0.18s CPU      0.18s WALL (     230 calls)
     cdiaghg      :     13.90s CPU     14.14s WALL (     305 calls)

     Called by h_psi:
     h_psi:pot    :     33.36s CPU     33.96s WALL (     310 calls)
     h_psi:calbec :      7.64s CPU      7.78s WALL (     310 calls)
     vloc_psi     :     18.61s CPU     19.05s WALL (     310 calls)
     add_vuspsi   :      7.10s CPU      7.12s WALL (     310 calls)

     General routines
     calbec       :     11.25s CPU     11.48s WALL (     405 calls)
     fft          :      1.11s CPU      1.19s WALL (     217 calls)
     ffts         :      0.41s CPU      0.42s WALL (     461 calls)
     fftw         :     20.91s CPU     21.40s WALL (   58694 calls)
     interpolate  :      0.08s CPU      0.08s WALL (      16 calls)
 
     Parallel routines
     fft_scatt_xy :      2.33s CPU      2.38s WALL (   59372 calls)
     fft_scatt_yz :      9.92s CPU     10.18s WALL (   59372 calls)
 
     PWSCF        :   1m35.33s CPU   1m38.42s WALL

 
   This run was terminated on:   0:13:13  25Dec2021            

=------------------------------------------------------------------------------=
   JOB DONE.
=------------------------------------------------------------------------------=

     Program PWSCF v.6.4 starts on 25Dec2021 at  0:14:50 

     This program is part of the open-source Quantum ESPRESSO suite
     for quantum simulation of materials; please cite
         "P. Giannozzi et al., J. Phys.:Condens. Matter 21 395502 (2009);
         "P. Giannozzi et al., J. Phys.:Condens. Matter 29 465901 (2017);
          URL http://www.quantum-espresso.org", 
     in publications or presentations arising from this work. More details at
     http://www.quantum-espresso.org/quote

     Parallel version (MPI), running on    40 processors

     MPI processes distributed on     1 nodes
     R & G space division:  proc/nbgrp/npool/nimage =      40
     Waiting for input...
     Reading input from standard input
Warning: card    &IONS ignored
Warning: card      ION_DYNAMICS = 'BFGS' ignored
Warning: card   / ignored
Warning: card    &CELL ignored
Warning: card      CELL_DYNAMICS = 'BFGS', ignored
Warning: card    / ignored

     Current dimensions of program PWSCF are:
     Max number of different atomic species (ntypx) = 10
     Max number of k-points (npk) =  40000
     Max angular momentum in pseudopotentials (lmaxx) =  3

     Subspace diagonalization in iterative solution of the eigenvalue problem:
     one sub-group per band group will be used
     scalapack distributed-memory algorithm (size of sub-group:  4*  4 procs)

 
     Parallelization info
     --------------------
     sticks:   dense  smooth     PW     G-vecs:    dense   smooth      PW
     Min          91      45     12                15619     5515     796
     Max          92      46     13                15644     5534     815
     Sum        3667    1813    511               625065   220861   32249
 


     bravais-lattice index     =            0
     lattice parameter (alat)  =      12.1536  a.u.
     unit-cell volume          =    5418.4329 (a.u.)^3
     number of atoms/cell      =           36
     number of atomic types    =            2
     number of electrons       =       216.00
     number of Kohn-Sham states=          130
     kinetic-energy cutoff     =      45.0000  Ry
     charge density cutoff     =     360.0000  Ry
     convergence threshold     =      1.0E-06
     mixing beta               =       0.7000
     number of iterations used =            8  local-TF  mixing
     Exchange-correlation      = SLA PW GGX GGC ( 1  4  2  2 0 0)

     celldm(1)=  12.153560  celldm(2)=   0.000000  celldm(3)=   0.000000
     celldm(4)=   0.000000  celldm(5)=   0.000000  celldm(6)=   0.000000

     crystal axes: (cart. coord. in units of alat)
               a(1) = (   1.000000   0.000000   0.000000 )  
               a(2) = (  -0.500000   0.866026   0.000000 )  
               a(3) = (   0.000000   0.000000   3.485238 )  

     reciprocal axes: (cart. coord. in units 2 pi/alat)
               b(1) = (  1.000000  0.577350  0.000000 )  
               b(2) = (  0.000000  1.154700  0.000000 )  
               b(3) = (  0.000000  0.000000  0.286924 )  


     PseudoPot. # 1 for Mo read from file:
     ~/pseudo/Mo.pw91-n-van.UPF
     MD5 check sum: Not computed, couldn't open file
     Pseudo is Ultrasoft + core correction, Zval =  6.0
     Generated by new atomic code, or converted to UPF format
     Using radial grid of  965 points,  3 beta functions with: 
                l(1) =   1
                l(2) =   2
                l(3) =   2
     Q(r) pseudized with  8 coefficients,  rinner =    1.000   1.000   1.000
                                                       1.200   1.200

     PseudoPot. # 2 for S  read from file:
     ~/pseudo/S.pw91-van_ak.UPF
     MD5 check sum: Not computed, couldn't open file
     Pseudo is Ultrasoft, Zval =  6.0
     Generated by new atomic code, or converted to UPF format
     Using radial grid of  811 points,  6 beta functions with: 
                l(1) =   0
                l(2) =   0
                l(3) =   1
                l(4) =   1
                l(5) =   2
                l(6) =   2
     Q(r) pseudized with  8 coefficients,  rinner =    1.100   1.100   1.100
                                                       1.100   1.100

     atomic species   valence    mass     pseudopotential
        Mo             6.00    95.50000     Mo( 1.00)
        S              6.00    32.06500     S ( 1.00)

     No symmetry found



   Cartesian axes

     site n.     atom                  positions (alat units)
         1           Mo  tau(   1) = (   0.2363752   0.7270042   1.5926998  )
         2           Mo  tau(   2) = (   0.4812878   0.0041347   2.7062305  )
         3           Mo  tau(   3) = (   0.3754028   0.6428620   0.3257556  )
         4           Mo  tau(   4) = (   0.4920092   0.2891386   1.6023182  )
         5           Mo  tau(   5) = (   0.7419733   0.4337785   2.7086824  )
         6           Mo  tau(   6) = (   0.6333360   0.2190913   0.3289829  )
         7           Mo  tau(   7) = (   0.9845763   0.0124941   2.7032712  )
         8           Mo  tau(   8) = (  -0.0136977   0.2919778   1.5938129  )
         9           Mo  tau(   9) = (  -0.2582784   0.7269724   1.5935672  )
        10           Mo  tau(  10) = (   0.2432486   0.4448271   2.7043236  )
        11           Mo  tau(  11) = (   0.1262187   0.2077289   0.3293627  )
        12           Mo  tau(  12) = (  -0.1249872   0.6492735   0.3416050  )
        13           S   tau(  13) = (   0.2445980   0.7367101   2.4659658  )
        14           S   tau(  14) = (   0.2342083   0.7220419   2.9544073  )
        15           S   tau(  15) = (   0.3733129   0.0752646   0.0781594  )
        16           S   tau(  16) = (   0.3662875   0.0732274   0.5808605  )
        17           S   tau(  17) = (   0.4963547   0.5894491   1.3568882  )
        18           S   tau(  18) = (   0.4860762   0.5931460   1.8410056  )
        19           S   tau(  19) = (   0.4901612   0.2991473   2.4745227  )
        20           S   tau(  20) = (   0.4888360   0.2970307   2.9658820  )
        21           S   tau(  21) = (   0.6198232   0.5122925   0.0899070  )
        22           S   tau(  22) = (   0.6238312   0.5042686   0.5869070  )
        23           S   tau(  23) = (   0.7466128   0.1547782   1.3580431  )
        24           S   tau(  24) = (   0.7407075   0.1491457   1.8388790  )
        25           S   tau(  25) = (   0.8674302   0.0774371   0.0853890  )
        26           S   tau(  26) = (   0.8777467   0.0768860   0.5852620  )
        27           S   tau(  27) = (  -0.0168454   0.3012501   2.4728239  )
        28           S   tau(  28) = (  -0.0070412   0.3049327   2.9582672  )
        29           S   tau(  29) = (  -0.2605512   0.7315842   2.4747820  )
        30           S   tau(  30) = (  -0.2581235   0.7368823   2.9618923  )
        31           S   tau(  31) = (   0.1333050   0.5078912   0.0835232  )
        32           S   tau(  32) = (   0.1175134   0.5004406   0.5747790  )
        33           S   tau(  33) = (   0.2425062   0.1487220   1.3489606  )
        34           S   tau(  34) = (   0.2412728   0.1445448   1.8452395  )
        35           S   tau(  35) = (  -0.0093139   0.5946802   1.3537592  )
        36           S   tau(  36) = (  -0.0099238   0.5801424   1.8399889  )

     number of k points=     5  Marzari-Vanderbilt smearing, width (Ry)=  0.0200
                       cart. coord. in units 2pi/alat
        k(    1) = (   0.0000000   0.0000000   0.0000000), wk =   0.2222222
        k(    2) = (   0.0000000   0.3849001   0.0000000), wk =   0.4444444
        k(    3) = (   0.3333333   0.5773502   0.0000000), wk =   0.4444444
        k(    4) = (  -0.3333333   0.1924501   0.0000000), wk =   0.4444444
        k(    5) = (   0.3333333   0.1924501   0.0000000), wk =   0.4444444

     Dense  grid:   625065 G-vectors     FFT dimensions: (  75,  75, 256)

     Smooth grid:   220861 G-vectors     FFT dimensions: (  54,  54, 192)

     Estimated max dynamical RAM per process >      99.86 MB

     Estimated total dynamical RAM >       3.90 GB

     Initial potential from superposition of free atoms

     starting charge  215.98107, renormalised to  216.00000
     Starting wfcs are  204 randomized atomic wfcs

     total cpu time spent up to now is        4.2 secs

     Self-consistent Calculation

     iteration #  1     ecut=    45.00 Ry     beta= 0.70
     Davidson diagonalization with overlap
     ethr =  1.00E-02,  avg # of iterations =  2.0

     total cpu time spent up to now is       10.4 secs

     total energy              =    -844.16269377 Ry
     Harris-Foulkes estimate   =    -846.75978796 Ry
     estimated scf accuracy    <       6.64164830 Ry

     iteration #  2     ecut=    45.00 Ry     beta= 0.70
     Davidson diagonalization with overlap
     ethr =  3.07E-03,  avg # of iterations =  2.8

     total cpu time spent up to now is       16.2 secs

     total energy              =    -845.38627472 Ry
     Harris-Foulkes estimate   =    -845.54999996 Ry
     estimated scf accuracy    <       0.86135635 Ry

     iteration #  3     ecut=    45.00 Ry     beta= 0.70
     Davidson diagonalization with overlap
     ethr =  3.99E-04,  avg # of iterations =  2.0

     total cpu time spent up to now is       21.2 secs

     total energy              =    -845.39284021 Ry
     Harris-Foulkes estimate   =    -845.46535223 Ry
     estimated scf accuracy    <       0.20592484 Ry

     iteration #  4     ecut=    45.00 Ry     beta= 0.70
     Davidson diagonalization with overlap
     ethr =  9.53E-05,  avg # of iterations =  5.4

     total cpu time spent up to now is       29.2 secs

     total energy              =    -845.44505444 Ry
     Harris-Foulkes estimate   =    -845.46874387 Ry
     estimated scf accuracy    <       0.10218264 Ry

     iteration #  5     ecut=    45.00 Ry     beta= 0.70
     Davidson diagonalization with overlap
     ethr =  4.73E-05,  avg # of iterations =  4.0

     total cpu time spent up to now is       35.0 secs

     total energy              =    -845.44962343 Ry
     Harris-Foulkes estimate   =    -845.45314257 Ry
     estimated scf accuracy    <       0.01029732 Ry

     iteration #  6     ecut=    45.00 Ry     beta= 0.70
     Davidson diagonalization with overlap
     ethr =  4.77E-06,  avg # of iterations =  6.6

     total cpu time spent up to now is       45.5 secs

     total energy              =    -845.45324146 Ry
     Harris-Foulkes estimate   =    -845.45534416 Ry
     estimated scf accuracy    <       0.00998680 Ry

     iteration #  7     ecut=    45.00 Ry     beta= 0.70
     Davidson diagonalization with overlap
     ethr =  4.62E-06,  avg # of iterations =  2.0

     total cpu time spent up to now is       50.4 secs

     total energy              =    -845.45380966 Ry
     Harris-Foulkes estimate   =    -845.45395325 Ry
     estimated scf accuracy    <       0.00126557 Ry

     iteration #  8     ecut=    45.00 Ry     beta= 0.70
     Davidson diagonalization with overlap
     ethr =  5.86E-07,  avg # of iterations =  3.6

     total cpu time spent up to now is       56.6 secs

     total energy              =    -845.45401362 Ry
     Harris-Foulkes estimate   =    -845.45403423 Ry
     estimated scf accuracy    <       0.00012824 Ry

     iteration #  9     ecut=    45.00 Ry     beta= 0.70
     Davidson diagonalization with overlap
     ethr =  5.94E-08,  avg # of iterations =  2.8

     total cpu time spent up to now is       62.8 secs

     total energy              =    -845.45400215 Ry
     Harris-Foulkes estimate   =    -845.45404509 Ry
     estimated scf accuracy    <       0.00017219 Ry

     iteration # 10     ecut=    45.00 Ry     beta= 0.70
     Davidson diagonalization with overlap
     ethr =  5.94E-08,  avg # of iterations =  2.8

     total cpu time spent up to now is       68.2 secs

     total energy              =    -845.45401846 Ry
     Harris-Foulkes estimate   =    -845.45402051 Ry
     estimated scf accuracy    <       0.00002307 Ry

     iteration # 11     ecut=    45.00 Ry     beta= 0.70
     Davidson diagonalization with overlap
     ethr =  1.07E-08,  avg # of iterations =  3.0

     total cpu time spent up to now is       73.7 secs

     total energy              =    -845.45401819 Ry
     Harris-Foulkes estimate   =    -845.45402175 Ry
     estimated scf accuracy    <       0.00001740 Ry

     iteration # 12     ecut=    45.00 Ry     beta= 0.70
     Davidson diagonalization with overlap
     ethr =  8.05E-09,  avg # of iterations =  2.0

     total cpu time spent up to now is       78.7 secs

     total energy              =    -845.45401999 Ry
     Harris-Foulkes estimate   =    -845.45402022 Ry
     estimated scf accuracy    <       0.00000431 Ry

     iteration # 13     ecut=    45.00 Ry     beta= 0.70
     Davidson diagonalization with overlap
     ethr =  1.99E-09,  avg # of iterations =  3.0

     total cpu time spent up to now is       84.1 secs

     total energy              =    -845.45401986 Ry
     Harris-Foulkes estimate   =    -845.45402041 Ry
     estimated scf accuracy    <       0.00000387 Ry

     iteration # 14     ecut=    45.00 Ry     beta= 0.70
     Davidson diagonalization with overlap
     ethr =  1.79E-09,  avg # of iterations =  1.0

     total cpu time spent up to now is       88.6 secs

     total energy              =    -845.45401968 Ry
     Harris-Foulkes estimate   =    -845.45402000 Ry
     estimated scf accuracy    <       0.00000142 Ry

     iteration # 15     ecut=    45.00 Ry     beta= 0.70
     Davidson diagonalization with overlap
     ethr =  6.57E-10,  avg # of iterations =  3.0

     total cpu time spent up to now is       94.1 secs

     End of self-consistent calculation

          k = 0.0000 0.0000 0.0000 ( 27553 PWs)   bands (ev):

    -8.7077  -8.6675  -8.5107  -7.4771  -7.4253  -7.3846  -7.0611  -7.0256
    -7.0099  -6.9758  -6.9089  -6.8423  -6.8380  -6.8032  -6.7109  -6.7102
    -6.6655  -6.6304  -6.6258  -6.5593  -6.5591  -6.5519  -6.5159  -6.4787
    -0.3543  -0.3407  -0.3288  -0.3124  -0.3021  -0.2538  -0.2090  -0.1888
    -0.1442  -0.1214  -0.0845   0.0209   0.6067   0.6282   0.6491   0.6828
     0.6966   0.7088   0.7402   0.7466   0.8037   1.2243   1.2766   1.3302
     1.3596   1.3960   1.4279   1.4366   1.4652   1.5690   2.0960   2.1236
     2.1628   2.1919   2.2042   2.3296   2.3315   2.3462   2.4925   2.6103
     2.6436   2.6784   2.7524   2.9055   2.9880   3.3425   3.3805   3.4454
     3.4869   3.5106   3.5246   3.5493   3.5529   3.5828   3.6175   3.6799
     3.7175   3.7880   3.8295   3.9696   3.9895   4.0389   4.1768   4.3240
     4.3312   4.3709   4.3841   4.4213   4.4389   4.4734   4.5157   4.6175
     4.6752   4.7074   4.7207   4.7655   4.7815   4.7958   4.8411   4.8960
     4.9485   5.2368   5.4537   5.5983   7.3062   7.3154   7.3274   7.3349
     7.3577   7.3866   7.4170   7.4212   7.4576   7.7847   7.8434   7.8587
     7.8710   7.8813   7.8848   7.9003   7.9217   7.9270   7.9349   7.9406
     7.9538   7.9674

          k = 0.0000 0.3849 0.0000 ( 27574 PWs)   bands (ev):

    -8.3481  -8.3091  -8.1538  -7.5194  -7.4708  -7.3235  -7.2999  -7.2545
    -7.1980  -7.0581  -6.9997  -6.9355  -6.9256  -6.8653  -6.8508  -6.8468
    -6.7809  -6.6843  -6.6308  -6.6247  -6.6163  -6.5992  -6.5502  -6.5113
     0.0685   0.1042   0.1250   0.1381   0.1576   0.1664   0.2380   0.2778
     0.3168   0.3212   0.3745   0.4390   0.5746   0.5942   0.6447   0.6600
     0.7397   0.7882   1.2283   1.2945   1.3707   1.4098   1.4616   1.5357
     1.5575   1.5761   1.5915   1.6365   1.6533   1.7632   1.8861   1.9866
     2.1097   2.1208   2.1430   2.1669   2.2435   2.2828   2.3465   2.3672
     2.4592   2.5672   2.6149   2.6648   2.7389   2.8799   3.0260   3.0421
     3.0706   3.0943   3.1168   3.1333   3.2024   3.2716   3.3483   3.4313
     3.4593   3.5832   3.6274   3.6469   3.6889   3.7271   3.7386   3.7549
     3.8123   3.8816   3.9870   3.9933   4.1594   4.1759   4.3012   4.4411
     4.4878   4.5263   4.5763   4.7401   4.8157   4.9043   4.9120   4.9179
     5.0030   5.0858   5.1721   5.2314   7.2369   7.3257   7.3395   7.3566
     7.3707   7.4000   7.4179   7.4320   7.4661   7.4850   7.5091   7.5684
     7.6259   7.6313   7.6607   7.7105   7.7678   7.7739   7.8180   7.8329
     7.8514   7.8664

          k = 0.3333 0.5774 0.0000 ( 27687 PWs)   bands (ev):

    -7.7871  -7.7786  -7.7215  -7.7110  -7.7014  -7.5872  -7.5697  -7.5587
    -7.4710  -7.0568  -7.0386  -6.9776  -6.9670  -6.9545  -6.9190  -6.9047
    -6.8880  -6.8438  -6.7857  -6.6763  -6.5101  -6.4617  -6.4316  -6.3628
     0.0207   0.0792   0.2448   0.3968   0.4329   0.4655   0.4847   0.5244
     0.6061   0.6678   0.6920   0.7586   0.8439   0.8904   0.9833   1.3419
     1.3627   1.4368   1.4694   1.4825   1.5051   1.5173   1.5935   1.6092
     1.6226   1.6757   1.7227   1.7327   1.7518   1.7678   1.7859   1.8001
     1.8176   1.8429   1.8583   1.8773   1.9337   1.9420   1.9942   2.1800
     2.1967   2.2275   2.2530   2.2737   2.3293   2.3472   2.4043   2.4441
     2.4919   2.5646   2.5902   3.1880   3.2440   3.2609   3.3445   3.3733
     3.3844   3.3915   3.4452   3.5059   3.5329   3.5595   3.6225   4.1164
     4.1872   4.2200   4.2579   4.2940   4.3129   4.3607   4.3795   4.4033
     4.5231   4.5919   4.6043   4.6144   4.6509   4.6582   4.6835   4.6977
     4.7627   5.2794   5.3354   5.4176   6.8408   6.9029   6.9803   7.0200
     7.0657   7.1009   7.1993   7.2196   7.2450   7.2650   7.2931   7.3468
     7.5676   7.6103   7.6320   7.6466   7.6686   7.6997   7.7130   7.7645
     7.7776   7.8762

          k =-0.3333 0.1925 0.0000 ( 27574 PWs)   bands (ev):

    -8.3455  -8.3059  -8.1452  -7.5098  -7.4510  -7.3053  -7.2891  -7.2560
    -7.2163  -7.0434  -7.0221  -7.0128  -6.8975  -6.8803  -6.8740  -6.8575
    -6.7913  -6.7184  -6.6802  -6.6515  -6.5536  -6.5448  -6.5142  -6.4739
     0.0720   0.1007   0.1047   0.1322   0.1663   0.1794   0.2244   0.2860
     0.3110   0.3558   0.3931   0.4443   0.5344   0.5592   0.6148   0.6264
     0.6385   0.7106   1.2239   1.2754   1.3526   1.4258   1.4694   1.5175
     1.5675   1.5929   1.6328   1.6526   1.6881   1.7316   1.8948   2.0087
     2.1158   2.1500   2.1734   2.1959   2.2570   2.3146   2.4003   2.4210
     2.4940   2.5033   2.5648   2.6431   2.8214   2.8910   3.0056   3.0145
     3.0614   3.0943   3.1082   3.1464   3.1778   3.3099   3.3720   3.4386
     3.5729   3.6042   3.6376   3.6533   3.6819   3.6975   3.7232   3.7375
     3.8079   3.8865   3.9799   3.9915   4.1409   4.1627   4.2875   4.3787
     4.4305   4.4535   4.4833   4.7582   4.7968   4.9033   4.9361   4.9572
     5.0177   5.0849   5.1262   5.2048   7.2470   7.3241   7.3484   7.3677
     7.3929   7.4149   7.4225   7.4337   7.4601   7.5011   7.5241   7.5537
     7.5999   7.6370   7.6883   7.8031   7.8098   7.8296   7.8694   7.8914
     7.9039   7.9352

          k = 0.3333 0.1925 0.0000 ( 27574 PWs)   bands (ev):

    -8.3443  -8.3013  -8.1512  -7.5149  -7.4449  -7.3440  -7.2907  -7.2619
    -7.1566  -7.0722  -7.0025  -6.9981  -6.9131  -6.8902  -6.8761  -6.8481
    -6.7864  -6.7540  -6.6192  -6.6128  -6.5799  -6.5665  -6.5300  -6.4815
     0.0670   0.0856   0.1064   0.1587   0.1667   0.1850   0.2420   0.2724
     0.3178   0.3288   0.3917   0.4422   0.5256   0.5314   0.5672   0.5838
     0.7056   0.7571   1.2361   1.2870   1.3782   1.4486   1.4774   1.5330
     1.5564   1.5855   1.5964   1.6284   1.6598   1.7646   1.8997   2.0285
     2.1315   2.1816   2.1894   2.1990   2.2421   2.2536   2.3659   2.4562
     2.5005   2.5431   2.6324   2.6513   2.6930   2.8740   2.9837   3.0102
     3.0573   3.0792   3.1134   3.1438   3.1877   3.4027   3.4250   3.4417
     3.4885   3.5733   3.6495   3.6593   3.6792   3.6959   3.7145   3.7506
     3.7806   3.8544   3.9842   3.9899   4.1328   4.1899   4.2828   4.3407
     4.3873   4.4269   4.6338   4.8051   4.8536   4.8700   4.8797   4.9302
     5.0380   5.0611   5.1472   5.1840   7.2911   7.3207   7.3517   7.3703
     7.3807   7.4085   7.4342   7.4388   7.4660   7.5155   7.5223   7.5721
     7.5885   7.6495   7.6791   7.7839   7.8135   7.8448   7.8788   7.8993
     7.9156   7.9554

     the Fermi energy is     5.5070 ev

!    total energy              =    -845.45401973 Ry
     Harris-Foulkes estimate   =    -845.45401989 Ry
     estimated scf accuracy    <       0.00000017 Ry

     The total energy is the sum of the following terms:

     one-electron contribution =    -298.64982240 Ry
     hartree contribution      =     265.17092170 Ry
     xc contribution           =    -334.22599784 Ry
     ewald contribution        =    -477.77107522 Ry
     smearing contrib. (-TS)   =       0.02195403 Ry

     convergence has been achieved in  15 iterations

     Forces acting on atoms (cartesian axes, Ry/au):

     atom    1 type  1   force =     0.02913695    0.01555438    0.03333188
     atom    2 type  1   force =     0.05886898    0.03559307    0.07004535
     atom    3 type  1   force =    -0.01096103    0.05758529    0.07812584
     atom    4 type  1   force =    -0.01977246    0.04643266   -0.01807264
     atom    5 type  1   force =    -0.03312345    0.06778863    0.08621097
     atom    6 type  1   force =    -0.06951039   -0.00547269    0.04255084
     atom    7 type  1   force =     0.02716148   -0.01034204    0.10119502
     atom    8 type  1   force =     0.05665041    0.02291840    0.02705831
     atom    9 type  1   force =    -0.00439955    0.01914923    0.04227007
     atom   10 type  1   force =    -0.02113478   -0.01445634    0.05982463
     atom   11 type  1   force =    -0.01549653    0.04843555   -0.00519035
     atom   12 type  1   force =    -0.01089335    0.01006402   -0.06103726
     atom   13 type  2   force =    -0.02891275   -0.01333615   -0.03563136
     atom   14 type  2   force =     0.00833420    0.02914559   -0.01539873
     atom   15 type  2   force =     0.01821803   -0.01723912    0.03204544
     atom   16 type  2   force =     0.03670827    0.00295452   -0.01144915
     atom   17 type  2   force =    -0.02164909   -0.03313982   -0.02250998
     atom   18 type  2   force =     0.00810303   -0.02764208   -0.00159338
     atom   19 type  2   force =     0.00067925   -0.01741563   -0.05381199
     atom   20 type  2   force =     0.00064985   -0.00746666   -0.04410248
     atom   21 type  2   force =     0.03954978   -0.01586303   -0.01633469
     atom   22 type  2   force =    -0.00308894   -0.00226006   -0.02639245
     atom   23 type  2   force =    -0.03213603   -0.01435022   -0.04349026
     atom   24 type  2   force =     0.00167627   -0.00811257    0.02088627
     atom   25 type  2   force =     0.02801099   -0.02495573   -0.01115166
     atom   26 type  2   force =    -0.00589446   -0.02677391   -0.03410068
     atom   27 type  2   force =     0.03092845   -0.00384905   -0.06219308
     atom   28 type  2   force =     0.00212763   -0.02067329   -0.01966869
     atom   29 type  2   force =    -0.02003525   -0.02233259   -0.05480304
     atom   30 type  2   force =    -0.02560407   -0.02204455   -0.03139511
     atom   31 type  2   force =    -0.03797510   -0.01976823    0.00862804
     atom   32 type  2   force =     0.03073847   -0.00721493    0.00459127
     atom   33 type  2   force =    -0.00020047    0.00989967    0.00618366
     atom   34 type  2   force =    -0.00834062    0.00918110   -0.01208805
     atom   35 type  2   force =    -0.00482035   -0.03993016   -0.03376735
     atom   36 type  2   force =    -0.00359336   -0.00006325    0.00123482

     Total force =     0.339052     Total SCF correction =     0.001156
 
     init_run     :      3.31s CPU      3.45s WALL (       1 calls)
     electrons    :     87.66s CPU     89.83s WALL (       1 calls)
     forces       :      1.89s CPU      1.95s WALL (       1 calls)

     Called by init_run:
     wfcinit      :      2.14s CPU      2.19s WALL (       1 calls)
     potinit      :      0.24s CPU      0.25s WALL (       1 calls)
     hinit0       :      0.33s CPU      0.35s WALL (       1 calls)

     Called by electrons:
     c_bands      :     69.39s CPU     70.32s WALL (      15 calls)
     sum_band     :     13.34s CPU     14.20s WALL (      15 calls)
     v_of_rho     :      0.97s CPU      1.00s WALL (      16 calls)
     newd         :      3.12s CPU      3.49s WALL (      16 calls)
     mix_rho      :      0.96s CPU      0.98s WALL (      15 calls)

     Called by c_bands:
     init_us_2    :      2.02s CPU      2.05s WALL (     160 calls)
     cegterg      :     64.36s CPU     65.25s WALL (      75 calls)

     Called by sum_band:
     sum_band:bec :      0.13s CPU      0.13s WALL (      75 calls)
     addusdens    :      4.59s CPU      5.24s WALL (      15 calls)

     Called by *egterg:
     h_psi        :     33.73s CPU     34.37s WALL (     310 calls)
     s_psi        :      6.80s CPU      6.81s WALL (     310 calls)
     g_psi        :      0.18s CPU      0.19s WALL (     230 calls)
     cdiaghg      :     13.59s CPU     13.79s WALL (     305 calls)

     Called by h_psi:
     h_psi:pot    :     33.33s CPU     33.95s WALL (     310 calls)
     h_psi:calbec :      7.53s CPU      7.78s WALL (     310 calls)
     vloc_psi     :     18.64s CPU     19.00s WALL (     310 calls)
     add_vuspsi   :      7.15s CPU      7.17s WALL (     310 calls)

     General routines
     calbec       :     11.10s CPU     11.49s WALL (     405 calls)
     fft          :      1.08s CPU      1.15s WALL (     217 calls)
     ffts         :      0.39s CPU      0.39s WALL (     461 calls)
     fftw         :     20.63s CPU     21.02s WALL (   58694 calls)
     interpolate  :      0.08s CPU      0.08s WALL (      16 calls)
 
     Parallel routines
     fft_scatt_xy :      2.49s CPU      2.53s WALL (   59372 calls)
     fft_scatt_yz :      9.33s CPU      9.55s WALL (   59372 calls)
 
     PWSCF        :   1m33.60s CPU   1m36.08s WALL

 
   This run was terminated on:   0:16:26  25Dec2021            

=------------------------------------------------------------------------------=
   JOB DONE.
=------------------------------------------------------------------------------=
