
     Program PWSCF v.6.4 starts on 24Dec2021 at 20:33:40 

     This program is part of the open-source Quantum ESPRESSO suite
     for quantum simulation of materials; please cite
         "P. Giannozzi et al., J. Phys.:Condens. Matter 21 395502 (2009);
         "P. Giannozzi et al., J. Phys.:Condens. Matter 29 465901 (2017);
          URL http://www.quantum-espresso.org", 
     in publications or presentations arising from this work. More details at
     http://www.quantum-espresso.org/quote

     Parallel version (MPI), running on    40 processors

     MPI processes distributed on     1 nodes
     R & G space division:  proc/nbgrp/npool/nimage =      40
     Waiting for input...
     Reading input from standard input
Warning: card    &IONS ignored
Warning: card      ION_DYNAMICS = 'BFGS' ignored
Warning: card   / ignored
Warning: card    &CELL ignored
Warning: card      CELL_DYNAMICS = 'BFGS', ignored
Warning: card    / ignored

     Current dimensions of program PWSCF are:
     Max number of different atomic species (ntypx) = 10
     Max number of k-points (npk) =  40000
     Max angular momentum in pseudopotentials (lmaxx) =  3

     Subspace diagonalization in iterative solution of the eigenvalue problem:
     one sub-group per band group will be used
     scalapack distributed-memory algorithm (size of sub-group:  4*  4 procs)

 
     Parallelization info
     --------------------
     sticks:   dense  smooth     PW     G-vecs:    dense   smooth      PW
     Min         231     115     31                17450     6167     882
     Max         232     116     32                17453     6169     886
     Sum        9251    4609   1271               698045   246713   35383
 


     bravais-lattice index     =            0
     lattice parameter (alat)  =      17.6744  a.u.
     unit-cell volume          =    6051.3565 (a.u.)^3
     number of atoms/cell      =           42
     number of atomic types    =            2
     number of electrons       =       252.00
     number of Kohn-Sham states=          151
     kinetic-energy cutoff     =      45.0000  Ry
     charge density cutoff     =     360.0000  Ry
     convergence threshold     =      1.0E-06
     mixing beta               =       0.7000
     number of iterations used =            8  local-TF  mixing
     Exchange-correlation      = SLA PW GGX GGC ( 1  4  2  2 0 0)

     celldm(1)=  17.674411  celldm(2)=   0.000000  celldm(3)=   0.000000
     celldm(4)=   0.000000  celldm(5)=   0.000000  celldm(6)=   0.000000

     crystal axes: (cart. coord. in units of alat)
               a(1) = (   1.000000   0.000000   0.000000 )  
               a(2) = (  -0.055565   1.032781   0.000000 )  
               a(3) = (  -0.049286  -0.044216   1.061231 )  

     reciprocal axes: (cart. coord. in units 2 pi/alat)
               b(1) = (  1.000000  0.053802  0.048684 )  
               b(2) = (  0.000000  0.968260  0.040342 )  
               b(3) = (  0.000000  0.000000  0.942302 )  


     PseudoPot. # 1 for Mo read from file:
     ~/pseudo/Mo.pw91-n-van.UPF
     MD5 check sum: Not computed, couldn't open file
     Pseudo is Ultrasoft + core correction, Zval =  6.0
     Generated by new atomic code, or converted to UPF format
     Using radial grid of  965 points,  3 beta functions with: 
                l(1) =   1
                l(2) =   2
                l(3) =   2
     Q(r) pseudized with  8 coefficients,  rinner =    1.000   1.000   1.000
                                                       1.200   1.200

     PseudoPot. # 2 for S  read from file:
     ~/pseudo/S.pw91-van_ak.UPF
     MD5 check sum: Not computed, couldn't open file
     Pseudo is Ultrasoft, Zval =  6.0
     Generated by new atomic code, or converted to UPF format
     Using radial grid of  811 points,  6 beta functions with: 
                l(1) =   0
                l(2) =   0
                l(3) =   1
                l(4) =   1
                l(5) =   2
                l(6) =   2
     Q(r) pseudized with  8 coefficients,  rinner =    1.100   1.100   1.100
                                                       1.100   1.100

     atomic species   valence    mass     pseudopotential
        Mo             6.00    95.50000     Mo( 1.00)
        S              6.00    32.06500     S ( 1.00)

     No symmetry found



   Cartesian axes

     site n.     atom                  positions (alat units)
         1           Mo  tau(   1) = (   0.8206890   0.6020771   0.4297843  )
         2           Mo  tau(   2) = (   0.5695256   0.6266150   0.1152836  )
         3           Mo  tau(   3) = (   0.8530362   0.9268146   0.2050748  )
         4           Mo  tau(   4) = (   0.5319502   0.9100183   0.4145772  )
         5           Mo  tau(   5) = (   0.3673663   0.0984587   0.3887555  )
         6           Mo  tau(   6) = (   0.1388354   0.1277448   0.1521034  )
         7           Mo  tau(   7) = (   0.3735621   0.3988444   0.1085829  )
         8           Mo  tau(   8) = (   0.0992001   0.3234852   0.3838254  )
         9           Mo  tau(   9) = (   0.5609240   0.0982260   0.6254424  )
        10           Mo  tau(  10) = (   0.8308966   0.3809923   0.6387111  )
        11           Mo  tau(  11) = (   0.5401675   0.3793927   0.9391433  )
        12           Mo  tau(  12) = (   0.3098903   0.5662668   0.9366690  )
        13           Mo  tau(  13) = (   0.0378820   0.5983515   0.6397019  )
        14           Mo  tau(  14) = (   0.3008334   0.8954105   0.5929309  )
        15           S   tau(  15) = (   0.8361069   0.6727587   0.1698963  )
        16           S   tau(  16) = (   0.5642673   0.6425060   0.3843650  )
        17           S   tau(  17) = (   0.6151251   0.1299042   0.3753992  )
        18           S   tau(  18) = (  -0.0886254   0.9773939   1.0557086  )
        19           S   tau(  19) = (   0.6320542   0.3759073   0.1265368  )
        20           S   tau(  20) = (   0.8336080   0.3521226   0.3889046  )
        21           S   tau(  21) = (   0.5610428   0.3632791   0.6636737  )
        22           S   tau(  22) = (   0.3776450   0.1216070   0.1290682  )
        23           S   tau(  23) = (   0.0443083   0.0642326   0.3714175  )
        24           S   tau(  24) = (   0.0736166   0.5922210   0.3874169  )
        25           S   tau(  25) = (   0.3146268   0.6481284   0.1173968  )
        26           S   tau(  26) = (   0.0608501   0.8583388   0.6695322  )
        27           S   tau(  27) = (   0.2840620   0.8846869   0.3488363  )
        28           S   tau(  28) = (   0.8214764   0.1128841   0.6773832  )
        29           S   tau(  29) = (   0.7959918   0.8673743   0.4515236  )
        30           S   tau(  30) = (   0.5737141   0.1106433   0.9002221  )
        31           S   tau(  31) = (   0.5486072   0.6357341   0.9338871  )
        32           S   tau(  32) = (   0.7868003   0.6308212   0.6797587  )
        33           S   tau(  33) = (   0.5350311   0.8806554   0.6718909  )
        34           S   tau(  34) = (   0.5986706   0.8957172   0.1572569  )
        35           S   tau(  35) = (   0.2988066   0.6435449   0.6845953  )
        36           S   tau(  36) = (   0.3598917   0.3620539   0.3730650  )
        37           S   tau(  37) = (   0.0552700   0.6171390   0.9138428  )
        38           S   tau(  38) = (   0.7990622   0.3575263   0.9035674  )
        39           S   tau(  39) = (   0.3093944   0.1033122   0.6427744  )
        40           S   tau(  40) = (   0.0852790   0.3477599   0.6437528  )
        41           S   tau(  41) = (   0.2915625   0.3231830   0.9169111  )
        42           S   tau(  42) = (   0.0971698   0.3656289   0.1212803  )

     number of k points=     8  Marzari-Vanderbilt smearing, width (Ry)=  0.0200
                       cart. coord. in units 2pi/alat
        k(    1) = (   0.0000000   0.0000000   0.0000000), wk =   0.2500000
        k(    2) = (   0.0000000   0.0000000  -0.4711512), wk =   0.2500000
        k(    3) = (   0.0000000  -0.4841299  -0.0201710), wk =   0.2500000
        k(    4) = (   0.0000000  -0.4841299  -0.4913222), wk =   0.2500000
        k(    5) = (  -0.5000000  -0.0269009  -0.0243420), wk =   0.2500000
        k(    6) = (  -0.5000000  -0.0269009  -0.4954932), wk =   0.2500000
        k(    7) = (  -0.5000000  -0.5110307  -0.0445131), wk =   0.2500000
        k(    8) = (  -0.5000000  -0.5110307  -0.5156642), wk =   0.2500000

     Dense  grid:   698045 G-vectors     FFT dimensions: ( 108, 120, 120)

     Smooth grid:   246713 G-vectors     FFT dimensions: (  75,  80,  81)

     Estimated max dynamical RAM per process >     125.84 MB

     Estimated total dynamical RAM >       4.92 GB

     Initial potential from superposition of free atoms

     starting charge  251.97792, renormalised to  252.00000
     Starting wfcs are  238 randomized atomic wfcs

     total cpu time spent up to now is        6.9 secs

     Self-consistent Calculation

     iteration #  1     ecut=    45.00 Ry     beta= 0.70
     Davidson diagonalization with overlap
     ethr =  1.00E-02,  avg # of iterations =  2.0

     total cpu time spent up to now is       18.7 secs

     total energy              =    -983.08598219 Ry
     Harris-Foulkes estimate   =    -986.95265075 Ry
     estimated scf accuracy    <      11.23310539 Ry

     iteration #  2     ecut=    45.00 Ry     beta= 0.70
     Davidson diagonalization with overlap
     ethr =  4.46E-03,  avg # of iterations =  2.0

     total cpu time spent up to now is       29.7 secs

     total energy              =    -984.41609861 Ry
     Harris-Foulkes estimate   =    -985.77176588 Ry
     estimated scf accuracy    <       8.52831269 Ry

     iteration #  3     ecut=    45.00 Ry     beta= 0.70
     Davidson diagonalization with overlap
     ethr =  3.38E-03,  avg # of iterations =  1.4

     total cpu time spent up to now is       38.3 secs

     total energy              =    -985.08411178 Ry
     Harris-Foulkes estimate   =    -985.29852515 Ry
     estimated scf accuracy    <       2.27216654 Ry

     iteration #  4     ecut=    45.00 Ry     beta= 0.70
     Davidson diagonalization with overlap
     ethr =  9.02E-04,  avg # of iterations =  1.1

     total cpu time spent up to now is       46.8 secs

     total energy              =    -985.12259652 Ry
     Harris-Foulkes estimate   =    -985.17424148 Ry
     estimated scf accuracy    <       0.32935706 Ry

     iteration #  5     ecut=    45.00 Ry     beta= 0.70
     Davidson diagonalization with overlap
     ethr =  1.31E-04,  avg # of iterations =  2.1

     total cpu time spent up to now is       56.0 secs

     total energy              =    -985.14366449 Ry
     Harris-Foulkes estimate   =    -985.16154020 Ry
     estimated scf accuracy    <       0.12454904 Ry

     iteration #  6     ecut=    45.00 Ry     beta= 0.70
     Davidson diagonalization with overlap
     ethr =  4.94E-05,  avg # of iterations =  3.1

     total cpu time spent up to now is       66.1 secs

     total energy              =    -985.15442925 Ry
     Harris-Foulkes estimate   =    -985.16397494 Ry
     estimated scf accuracy    <       0.09260707 Ry

     iteration #  7     ecut=    45.00 Ry     beta= 0.70
     Davidson diagonalization with overlap
     ethr =  3.67E-05,  avg # of iterations =  1.8

     total cpu time spent up to now is       75.0 secs

     total energy              =    -985.15967573 Ry
     Harris-Foulkes estimate   =    -985.16166989 Ry
     estimated scf accuracy    <       0.01562927 Ry

     iteration #  8     ecut=    45.00 Ry     beta= 0.70
     Davidson diagonalization with overlap
     ethr =  6.20E-06,  avg # of iterations = 12.8

     total cpu time spent up to now is       94.6 secs

     total energy              =    -985.16123676 Ry
     Harris-Foulkes estimate   =    -985.16187685 Ry
     estimated scf accuracy    <       0.00584617 Ry

     iteration #  9     ecut=    45.00 Ry     beta= 0.70
     Davidson diagonalization with overlap
     ethr =  2.32E-06,  avg # of iterations =  1.1

     total cpu time spent up to now is      103.0 secs

     total energy              =    -985.16131258 Ry
     Harris-Foulkes estimate   =    -985.16154954 Ry
     estimated scf accuracy    <       0.00101354 Ry

     iteration # 10     ecut=    45.00 Ry     beta= 0.70
     Davidson diagonalization with overlap
     ethr =  4.02E-07,  avg # of iterations =  3.9

     total cpu time spent up to now is      117.4 secs

     total energy              =    -985.16148615 Ry
     Harris-Foulkes estimate   =    -985.16162876 Ry
     estimated scf accuracy    <       0.00105878 Ry

     iteration # 11     ecut=    45.00 Ry     beta= 0.70
     Davidson diagonalization with overlap
     ethr =  4.02E-07,  avg # of iterations =  1.0

     total cpu time spent up to now is      125.8 secs

     total energy              =    -985.16152722 Ry
     Harris-Foulkes estimate   =    -985.16154680 Ry
     estimated scf accuracy    <       0.00013405 Ry

     iteration # 12     ecut=    45.00 Ry     beta= 0.70
     Davidson diagonalization with overlap
     ethr =  5.32E-08,  avg # of iterations =  3.1

     total cpu time spent up to now is      138.3 secs

     total energy              =    -985.16154978 Ry
     Harris-Foulkes estimate   =    -985.16155696 Ry
     estimated scf accuracy    <       0.00006306 Ry

     iteration # 13     ecut=    45.00 Ry     beta= 0.70
     Davidson diagonalization with overlap
     ethr =  2.50E-08,  avg # of iterations =  1.0

     total cpu time spent up to now is      146.7 secs

     total energy              =    -985.16155263 Ry
     Harris-Foulkes estimate   =    -985.16155413 Ry
     estimated scf accuracy    <       0.00000901 Ry

     iteration # 14     ecut=    45.00 Ry     beta= 0.70
     Davidson diagonalization with overlap
     ethr =  3.57E-09,  avg # of iterations =  3.0

     total cpu time spent up to now is      159.1 secs

     total energy              =    -985.16155410 Ry
     Harris-Foulkes estimate   =    -985.16155478 Ry
     estimated scf accuracy    <       0.00000533 Ry

     iteration # 15     ecut=    45.00 Ry     beta= 0.70
     Davidson diagonalization with overlap
     ethr =  2.11E-09,  avg # of iterations =  1.0

     total cpu time spent up to now is      167.4 secs

     End of self-consistent calculation

          k = 0.0000 0.0000 0.0000 ( 30845 PWs)   bands (ev):

    -7.9707  -7.3221  -7.2523  -7.2046  -7.1401  -7.0960  -6.9670  -6.7817
    -6.7310  -6.7098  -6.6811  -6.6167  -6.5363  -6.4953  -6.4437  -6.4325
    -6.3452  -6.2977  -6.2206  -6.1320  -5.9649  -5.9287  -5.8426  -5.5280
    -5.4251  -5.3220  -5.1361  -5.1074   0.0767   0.2475   0.3535   0.4502
     0.6937   0.7074   0.8044   0.8350   0.9733   1.1204   1.1515   1.1739
     1.2877   1.3013   1.3689   1.4926   1.5414   1.5694   1.6539   1.7220
     1.7582   1.8753   1.9003   1.9171   1.9783   2.0775   2.1174   2.1471
     2.1898   2.2740   2.3125   2.3243   2.3802   2.4383   2.4448   2.5057
     2.5149   2.5590   2.5975   2.6468   2.6713   2.6957   2.7514   2.7816
     2.8964   2.9166   2.9577   2.9931   3.0166   3.0765   3.1165   3.1776
     3.2020   3.2518   3.2643   3.3490   3.3943   3.4043   3.4767   3.5572
     3.6113   3.6828   3.7148   3.7661   3.8749   4.0049   4.0725   4.1221
     4.2224   4.2912   4.2928   4.5008   4.5772   4.6302   4.6715   4.7726
     4.7875   4.9225   4.9662   5.0183   5.0692   5.1582   5.2342   5.3160
     5.3920   5.4579   5.5410   5.5575   5.5933   5.6823   5.7504   5.8321
     5.9379   5.9604   6.0641   6.1296   6.2032   6.3181   6.3565   6.3677
     6.4711   6.6328   6.6675   6.7217   6.8234   6.9033   6.9161   7.1217
     7.1635   7.1940   7.4350   7.6426   7.7303   7.8375   7.8805   8.0184
     8.0982   8.1855   8.2437   8.2961   8.3624   8.4042   8.4419

          k = 0.0000 0.0000-0.4712 ( 30856 PWs)   bands (ev):

    -7.9110  -7.4763  -7.2159  -7.1714  -7.1437  -7.0301  -6.9833  -6.8814
    -6.7567  -6.7431  -6.6461  -6.5695  -6.5332  -6.4688  -6.4663  -6.4176
    -6.3249  -6.2988  -6.2094  -6.1377  -5.9533  -5.9359  -5.8485  -5.5242
    -5.4224  -5.3105  -5.1335  -5.1087   0.1103   0.3332   0.4552   0.6378
     0.6642   0.7158   0.7814   0.9030   0.9849   1.1205   1.1642   1.1962
     1.2451   1.2816   1.3462   1.3915   1.4332   1.4843   1.5473   1.6334
     1.6519   1.7198   1.8362   1.8870   1.9569   2.0036   2.0377   2.0926
     2.1942   2.2417   2.2754   2.2965   2.3030   2.4203   2.4393   2.4829
     2.5173   2.5549   2.5580   2.6028   2.7104   2.7711   2.8159   2.8534
     2.8713   2.9280   2.9995   3.0301   3.0584   3.1054   3.1505   3.1985
     3.2183   3.2881   3.3004   3.3861   3.4476   3.5160   3.5402   3.6209
     3.7072   3.7642   3.8014   3.8674   3.9549   4.0010   4.0489   4.1167
     4.2462   4.2621   4.4070   4.4689   4.5479   4.6033   4.6454   4.7108
     4.8497   4.8635   4.9001   5.0606   5.1098   5.1892   5.2315   5.2738
     5.3661   5.4304   5.5362   5.6155   5.6447   5.6970   5.7832   5.7984
     5.9610   5.9975   6.0631   6.1322   6.1586   6.2268   6.2498   6.3903
     6.4918   6.5347   6.5803   6.6741   6.7767   6.8797   6.9526   7.0978
     7.1736   7.1847   7.5205   7.6583   7.7033   7.8056   7.9787   8.0222
     8.1539   8.2165   8.2803   8.3679   8.3823   8.4283   8.4677

          k = 0.0000-0.4841-0.0202 ( 30786 PWs)   bands (ev):

    -7.7889  -7.6852  -7.2101  -7.1497  -7.0568  -7.0258  -6.9409  -6.9087
    -6.8202  -6.7375  -6.6474  -6.6069  -6.5334  -6.4869  -6.4460  -6.3980
    -6.3495  -6.3131  -6.1576  -6.0970  -5.9984  -5.9093  -5.8370  -5.5282
    -5.4282  -5.3402  -5.1332  -5.0866   0.2941   0.3778   0.5684   0.6220
     0.6393   0.6512   0.8230   0.8421   0.8664   0.9484   1.0465   1.1066
     1.2514   1.2909   1.3375   1.4372   1.5033   1.5474   1.5622   1.6294
     1.6725   1.7492   1.8072   1.9134   1.9597   1.9904   2.0596   2.1016
     2.1227   2.2306   2.3062   2.3476   2.3622   2.3939   2.4467   2.4928
     2.5389   2.5619   2.6301   2.6866   2.6961   2.7419   2.7679   2.8209
     2.8701   2.9184   2.9307   2.9858   3.0282   3.0577   3.1338   3.1884
     3.2660   3.2747   3.3557   3.3753   3.4342   3.4405   3.5672   3.6217
     3.6802   3.7227   3.7944   3.8641   3.9414   4.0140   4.0379   4.1835
     4.2926   4.3441   4.4296   4.4519   4.5035   4.5476   4.6870   4.7280
     4.7447   4.8238   4.9623   5.0323   5.1089   5.1897   5.3029   5.3388
     5.3583   5.4367   5.5207   5.6057   5.6810   5.7472   5.7986   5.8526
     5.9079   5.9621   6.0126   6.1715   6.2186   6.2390   6.2832   6.3634
     6.4206   6.4804   6.6370   6.7044   6.7293   6.8994   6.9377   7.0617
     7.1033   7.1847   7.5495   7.6904   7.7990   7.8475   7.9361   8.0682
     8.1085   8.1738   8.2675   8.2732   8.3824   8.4208   8.4769

          k = 0.0000-0.4841-0.4913 ( 30840 PWs)   bands (ev):

    -7.7482  -7.5995  -7.3940  -7.1748  -7.1351  -7.0077  -6.9611  -6.8507
    -6.7398  -6.7104  -6.6368  -6.6023  -6.5201  -6.4982  -6.4727  -6.4141
    -6.3672  -6.2998  -6.2069  -6.0839  -5.9448  -5.9138  -5.8194  -5.5288
    -5.4201  -5.3413  -5.1356  -5.0831   0.3614   0.4990   0.5573   0.6151
     0.7508   0.8202   0.8769   0.9087   0.9420   0.9487   1.0369   1.0718
     1.1726   1.1855   1.2605   1.3166   1.3400   1.4792   1.5320   1.5758
     1.6291   1.6593   1.6982   1.7910   1.8329   1.9512   2.0477   2.0869
     2.1117   2.2402   2.2980   2.3478   2.3720   2.4093   2.4342   2.4959
     2.5194   2.5817   2.6452   2.6977   2.7407   2.7614   2.7846   2.8543
     2.8876   2.8908   2.9590   2.9766   3.0358   3.0801   3.0897   3.2375
     3.2498   3.3411   3.3487   3.4039   3.4840   3.5518   3.6281   3.6522
     3.7044   3.7371   3.8363   3.8779   4.0304   4.0908   4.1408   4.1612
     4.2540   4.2931   4.3588   4.4595   4.4868   4.6330   4.6500   4.7290
     4.8058   4.9079   4.9902   5.1092   5.1330   5.1816   5.2874   5.3253
     5.3849   5.4974   5.5431   5.6011   5.6384   5.6605   5.7855   5.7949
     5.8792   5.9523   6.0232   6.1270   6.1664   6.2452   6.3351   6.3465
     6.4044   6.5071   6.5868   6.6997   6.7385   6.8753   6.9689   7.0061
     7.0905   7.1706   7.5569   7.6044   7.7045   7.8789   7.9749   8.0818
     8.1681   8.2194   8.2445   8.3219   8.3737   8.4289   8.4766

          k =-0.5000-0.0269-0.0243 ( 30872 PWs)   bands (ev):

    -7.7530  -7.7176  -7.2127  -7.1155  -7.0938  -7.0462  -6.8827  -6.8327
    -6.7922  -6.7619  -6.7070  -6.6211  -6.5851  -6.5282  -6.4745  -6.4064
    -6.3277  -6.2667  -6.1547  -6.1028  -5.9976  -5.9281  -5.8120  -5.5148
    -5.4369  -5.3504  -5.1301  -5.0851   0.4387   0.4458   0.5214   0.6012
     0.6352   0.7270   0.7873   0.8669   0.9012   1.0544   1.0931   1.1609
     1.2188   1.3389   1.3690   1.3851   1.4892   1.5659   1.5907   1.6344
     1.7100   1.7318   1.8309   1.8890   1.9239   1.9938   2.0207   2.0720
     2.0977   2.1837   2.2405   2.2687   2.3418   2.3958   2.4445   2.4477
     2.4757   2.5335   2.6144   2.6355   2.6777   2.6806   2.7764   2.7826
     2.8488   2.8688   2.9547   3.0199   3.0491   3.0563   3.1115   3.1414
     3.1525   3.2328   3.3197   3.3750   3.4580   3.5284   3.5750   3.5945
     3.6657   3.7958   3.8352   3.9088   4.0080   4.0307   4.0617   4.0802
     4.1531   4.2566   4.3737   4.4371   4.4583   4.5800   4.6583   4.7214
     4.8140   4.8350   4.9720   5.0316   5.0999   5.1784   5.2826   5.3186
     5.4275   5.4824   5.5324   5.5675   5.6296   5.6709   5.7985   5.8296
     5.9329   5.9820   6.0705   6.2234   6.2608   6.3331   6.3508   6.4183
     6.4862   6.5366   6.6565   6.6922   6.8250   6.9113   6.9683   7.1062
     7.1952   7.2347   7.5044   7.5571   7.6459   7.8083   7.9278   8.0444
     8.1186   8.1932   8.2744   8.2980   8.3467   8.3798   8.4262

          k =-0.5000-0.0269-0.4955 ( 30850 PWs)   bands (ev):

    -7.6977  -7.6735  -7.3751  -7.1611  -7.0409  -7.0172  -6.9057  -6.8502
    -6.8072  -6.7701  -6.6691  -6.6418  -6.5966  -6.4707  -6.4450  -6.4091
    -6.3252  -6.3134  -6.1971  -6.0796  -5.9551  -5.9252  -5.7886  -5.5116
    -5.4360  -5.3461  -5.1320  -5.0834   0.4327   0.5056   0.5710   0.5946
     0.6864   0.7875   0.8670   0.8905   0.9711   1.0333   1.0740   1.1941
     1.2129   1.2931   1.3243   1.3725   1.4328   1.5077   1.5379   1.6001
     1.6417   1.7092   1.7474   1.7841   1.8633   1.9676   2.0434   2.0877
     2.1570   2.1976   2.2588   2.2870   2.3322   2.3820   2.4218   2.4495
     2.4656   2.4935   2.5506   2.5845   2.6184   2.6933   2.7309   2.7962
     2.8221   2.8603   2.8774   2.9069   2.9605   3.0007   3.0823   3.0882
     3.2410   3.2746   3.3432   3.4139   3.4730   3.5296   3.6396   3.6854
     3.7583   3.8223   3.9148   3.9329   4.0144   4.0294   4.1225   4.1938
     4.2647   4.3579   4.4393   4.4975   4.5540   4.6268   4.6841   4.7251
     4.8190   4.8458   4.8962   5.0237   5.0901   5.2003   5.2618   5.2966
     5.4718   5.5074   5.5716   5.5828   5.6236   5.6856   5.7809   5.8023
     5.8696   6.0280   6.0982   6.1765   6.2348   6.3040   6.3440   6.3910
     6.4284   6.4826   6.5779   6.6975   6.8021   6.8759   6.9955   7.0860
     7.1446   7.2256   7.5639   7.5693   7.6084   7.8006   7.9290   8.0574
     8.1089   8.1976   8.2672   8.3169   8.4213   8.4479   8.4880

          k =-0.5000-0.5110-0.0445 ( 30818 PWs)   bands (ev):

    -7.6533  -7.5457  -7.4949  -7.3679  -7.0191  -6.9592  -6.8698  -6.8369
    -6.7926  -6.7289  -6.7158  -6.6449  -6.5508  -6.5174  -6.4262  -6.4116
    -6.3356  -6.2479  -6.2311  -6.1297  -5.9507  -5.8721  -5.8225  -5.5230
    -5.4353  -5.3083  -5.1252  -5.1054   0.4681   0.5082   0.6217   0.6819
     0.7255   0.8019   0.8367   0.8594   1.0167   1.0425   1.0860   1.1212
     1.2036   1.2815   1.3066   1.3363   1.4654   1.4817   1.5355   1.5798
     1.6632   1.6925   1.7639   1.7741   1.8315   1.9344   1.9971   2.0462
     2.0713   2.1500   2.2029   2.2566   2.2962   2.3306   2.4244   2.4626
     2.5066   2.5210   2.5834   2.6257   2.6609   2.6892   2.7451   2.8027
     2.8173   2.8793   2.8984   2.9572   2.9916   3.0087   3.0695   3.1376
     3.2269   3.3138   3.3780   3.4396   3.4618   3.5502   3.5820   3.6140
     3.6663   3.7331   3.8337   3.9526   4.0626   4.0964   4.1663   4.2317
     4.2873   4.3362   4.3861   4.4435   4.5448   4.6142   4.7015   4.8067
     4.8257   4.8916   4.9651   5.1345   5.1421   5.1870   5.2449   5.3487
     5.3747   5.4281   5.5221   5.5492   5.6359   5.7037   5.7403   5.8367
     5.8896   6.0000   6.0724   6.0913   6.2081   6.3230   6.3595   6.4134
     6.5168   6.5853   6.6821   6.7010   6.7483   6.8356   6.9186   7.0823
     7.1357   7.1847   7.5564   7.5757   7.6799   7.7555   7.9416   8.0162
     8.1061   8.1857   8.2540   8.3844   8.4073   8.4534   8.4886

          k =-0.5000-0.5110-0.5157 ( 30846 PWs)   bands (ev):

    -7.6081  -7.5193  -7.4651  -7.3474  -7.1118  -7.0871  -6.9364  -6.8955
    -6.7370  -6.7115  -6.6585  -6.5827  -6.5600  -6.4923  -6.4691  -6.3965
    -6.3853  -6.2591  -6.2158  -6.0828  -5.9477  -5.8294  -5.8014  -5.5232
    -5.4328  -5.3108  -5.1316  -5.1101   0.4595   0.5470   0.6180   0.6974
     0.7754   0.8525   0.8875   0.9559   1.0546   1.0682   1.1117   1.1482
     1.1753   1.2524   1.3083   1.3581   1.4465   1.4705   1.4969   1.5113
     1.6100   1.6493   1.6993   1.7647   1.7718   1.8119   1.8874   1.9400
     2.1041   2.1249   2.1486   2.2670   2.2905   2.3679   2.4275   2.4469
     2.4718   2.4828   2.5664   2.6455   2.6532   2.6859   2.7434   2.7592
     2.8426   2.8959   2.9017   2.9255   2.9829   3.0463   3.1263   3.1452
     3.1926   3.2475   3.3108   3.3915   3.4216   3.4853   3.6003   3.6418
     3.7250   3.8811   3.9038   4.0065   4.1024   4.1165   4.1999   4.2695
     4.3489   4.3977   4.4734   4.5517   4.6122   4.6530   4.7116   4.7735
     4.8357   4.8905   4.9744   5.0558   5.1504   5.2369   5.3008   5.3465
     5.3922   5.4913   5.5180   5.5623   5.6141   5.6463   5.7552   5.8426
     5.9086   6.0018   6.1125   6.1242   6.1857   6.2953   6.3107   6.4085
     6.5129   6.5403   6.6605   6.7197   6.7473   6.8300   6.8816   7.0392
     7.0673   7.2004   7.4641   7.5346   7.6723   7.7667   7.9120   8.1585
     8.1765   8.2122   8.2489   8.3280   8.4063   8.4127   8.4935

     the Fermi energy is     6.3056 ev

!    total energy              =    -985.16155372 Ry
     Harris-Foulkes estimate   =    -985.16155439 Ry
     estimated scf accuracy    <       0.00000091 Ry

     The total energy is the sum of the following terms:

     one-electron contribution =    -101.66911733 Ry
     hartree contribution      =     191.83644901 Ry
     xc contribution           =    -389.38905729 Ry
     ewald contribution        =    -685.93671721 Ry
     smearing contrib. (-TS)   =      -0.00311090 Ry

     convergence has been achieved in  15 iterations

     Forces acting on atoms (cartesian axes, Ry/au):

     atom    1 type  1   force =     0.01216859   -0.00272931    0.01959498
     atom    2 type  1   force =     0.02131334   -0.01659445    0.01535302
     atom    3 type  1   force =    -0.06928405   -0.02264298    0.01254652
     atom    4 type  1   force =     0.03964106    0.00242129   -0.01298663
     atom    5 type  1   force =    -0.05015005    0.02699694    0.01744213
     atom    6 type  1   force =    -0.00011591    0.01934832   -0.00414633
     atom    7 type  1   force =    -0.01082663   -0.02046061   -0.00921509
     atom    8 type  1   force =    -0.00311197    0.01433468   -0.01226073
     atom    9 type  1   force =     0.04897493    0.00957022    0.02992086
     atom   10 type  1   force =    -0.01337247   -0.01049652    0.01827407
     atom   11 type  1   force =     0.04553748   -0.05939991   -0.00249998
     atom   12 type  1   force =    -0.08019668    0.03094144   -0.02634177
     atom   13 type  1   force =    -0.00981323    0.02010750    0.01777273
     atom   14 type  1   force =    -0.04908860   -0.01905908    0.05103409
     atom   15 type  2   force =     0.01025220    0.01295807   -0.02292017
     atom   16 type  2   force =    -0.00305382   -0.00174407   -0.00135663
     atom   17 type  2   force =     0.01620940   -0.00200079    0.01530523
     atom   18 type  2   force =    -0.01339795   -0.01316106   -0.00146964
     atom   19 type  2   force =    -0.01886690    0.01385203    0.00293671
     atom   20 type  2   force =    -0.01330916   -0.00657423   -0.03722196
     atom   21 type  2   force =    -0.00059729   -0.00269385    0.00594716
     atom   22 type  2   force =     0.04137817   -0.00532195   -0.03955413
     atom   23 type  2   force =     0.01972772   -0.01241923    0.00643661
     atom   24 type  2   force =     0.02408843    0.02369294    0.00181838
     atom   25 type  2   force =    -0.00398116    0.00668084    0.04279080
     atom   26 type  2   force =    -0.01113619    0.00033667   -0.00097357
     atom   27 type  2   force =    -0.00574117   -0.05078171   -0.03078738
     atom   28 type  2   force =    -0.01825739    0.01675094    0.01722769
     atom   29 type  2   force =     0.00561264    0.00898408    0.00811730
     atom   30 type  2   force =     0.01180999    0.02263462   -0.02050689
     atom   31 type  2   force =     0.03897146    0.02401342   -0.03681394
     atom   32 type  2   force =     0.01215195   -0.00970733    0.00248193
     atom   33 type  2   force =     0.02286991   -0.00580941    0.00286661
     atom   34 type  2   force =     0.01718103    0.01936963   -0.02388159
     atom   35 type  2   force =     0.01215005   -0.00402002   -0.00912060
     atom   36 type  2   force =    -0.02486585    0.01217458    0.00804386
     atom   37 type  2   force =     0.00925312   -0.00885669   -0.01542302
     atom   38 type  2   force =     0.00869443   -0.00555146   -0.00715811
     atom   39 type  2   force =    -0.01744463    0.01404438    0.00776349
     atom   40 type  2   force =     0.01777696   -0.01410933    0.03127269
     atom   41 type  2   force =    -0.00830937   -0.02192653   -0.01956312
     atom   42 type  2   force =    -0.01084240    0.01684794   -0.00074557

     Total force =     0.254397     Total SCF correction =     0.002025
 
     init_run     :      6.10s CPU      6.24s WALL (       1 calls)
     electrons    :    157.54s CPU    160.46s WALL (       1 calls)
     forces       :      3.35s CPU      3.41s WALL (       1 calls)

     Called by init_run:
     wfcinit      :      4.43s CPU      4.51s WALL (       1 calls)
     potinit      :      0.45s CPU      0.46s WALL (       1 calls)
     hinit0       :      0.62s CPU      0.63s WALL (       1 calls)

     Called by electrons:
     c_bands      :    131.27s CPU    132.91s WALL (      15 calls)
     sum_band     :     21.04s CPU     21.97s WALL (      15 calls)
     v_of_rho     :      0.87s CPU      0.91s WALL (      16 calls)
     newd         :      3.58s CPU      3.85s WALL (      16 calls)
     mix_rho      :      0.86s CPU      0.92s WALL (      15 calls)

     Called by c_bands:
     init_us_2    :      2.15s CPU      2.17s WALL (     256 calls)
     cegterg      :    122.00s CPU    123.59s WALL (     120 calls)

     Called by sum_band:
     sum_band:bec :      0.26s CPU      0.26s WALL (     120 calls)
     addusdens    :      4.97s CPU      5.57s WALL (      15 calls)

     Called by *egterg:
     h_psi        :     66.89s CPU     68.06s WALL (     451 calls)
     s_psi        :     12.70s CPU     12.72s WALL (     451 calls)
     g_psi        :      0.25s CPU      0.25s WALL (     323 calls)
     cdiaghg      :     24.55s CPU     24.89s WALL (     443 calls)

     Called by h_psi:
     h_psi:pot    :     66.38s CPU     67.54s WALL (     451 calls)
     h_psi:calbec :     14.10s CPU     14.47s WALL (     451 calls)
     vloc_psi     :     39.43s CPU     40.19s WALL (     451 calls)
     add_vuspsi   :     12.84s CPU     12.87s WALL (     451 calls)

     General routines
     calbec       :     21.25s CPU     21.79s WALL (     603 calls)
     fft          :      0.68s CPU      0.72s WALL (     217 calls)
     ffts         :      0.42s CPU      0.47s WALL (     403 calls)
     fftw         :     44.23s CPU     45.09s WALL (  105692 calls)
     interpolate  :      0.08s CPU      0.08s WALL (      16 calls)
 
     Parallel routines
     fft_scatt_xy :      5.26s CPU      5.36s WALL (  106312 calls)
     fft_scatt_yz :     16.73s CPU     17.13s WALL (  106312 calls)
 
     PWSCF        :   2m47.70s CPU   2m50.91s WALL

 
   This run was terminated on:  20:36:30  24Dec2021            

=------------------------------------------------------------------------------=
   JOB DONE.
=------------------------------------------------------------------------------=
