
     Program PWSCF v.6.4 starts on 12Aug2021 at 13:38: 4 

     This program is part of the open-source Quantum ESPRESSO suite
     for quantum simulation of materials; please cite
         "P. Giannozzi et al., J. Phys.:Condens. Matter 21 395502 (2009);
         "P. Giannozzi et al., J. Phys.:Condens. Matter 29 465901 (2017);
          URL http://www.quantum-espresso.org", 
     in publications or presentations arising from this work. More details at
     http://www.quantum-espresso.org/quote

     Parallel version (MPI), running on    20 processors

     MPI processes distributed on     1 nodes
     R & G space division:  proc/nbgrp/npool/nimage =      20
     Waiting for input...
     Reading input from standard input
Warning: card    &IONS ignored
Warning: card      ION_DYNAMICS = 'BFGS' ignored
Warning: card   / ignored
Warning: card    &CELL ignored
Warning: card      CELL_DYNAMICS = 'BFGS', ignored
Warning: card    / ignored

     Current dimensions of program PWSCF are:
     Max number of different atomic species (ntypx) = 10
     Max number of k-points (npk) =  40000
     Max angular momentum in pseudopotentials (lmaxx) =  3

     gamma-point specific algorithms are used

     Subspace diagonalization in iterative solution of the eigenvalue problem:
     one sub-group per band group will be used
     scalapack distributed-memory algorithm (size of sub-group:  3*  3 procs)

 
     Parallelization info
     --------------------
     sticks:   dense  smooth     PW     G-vecs:    dense   smooth      PW
     Min        1986     993    248               315694   111614   13952
     Max        1988     996    250               315708   111620   13956
     Sum       39757   19889   4965              6314059  2232321  279065
 


     bravais-lattice index     =            0
     lattice parameter (alat)  =      40.4819  a.u.
     unit-cell volume          =   54738.7764 (a.u.)^3
     number of atoms/cell      =           24
     number of atomic types    =            2
     number of electrons       =       144.00
     number of Kohn-Sham states=           86
     kinetic-energy cutoff     =      45.0000  Ry
     charge density cutoff     =     360.0000  Ry
     convergence threshold     =      1.0E-06
     mixing beta               =       0.7000
     number of iterations used =            8  local-TF  mixing
     Exchange-correlation      = SLA PW GGX GGC ( 1  4  2  2 0 0)

     celldm(1)=  40.481885  celldm(2)=   0.000000  celldm(3)=   0.000000
     celldm(4)=   0.000000  celldm(5)=   0.000000  celldm(6)=   0.000000

     crystal axes: (cart. coord. in units of alat)
               a(1) = (   0.999999  -0.001271   0.000241 )  
               a(2) = (  -0.001016   0.846823  -0.000627 )  
               a(3) = (   0.002696   0.025996   0.974346 )  

     reciprocal axes: (cart. coord. in units 2 pi/alat)
               b(1) = (  1.000003  0.001198 -0.002799 )  
               b(2) = (  0.001508  1.180863 -0.031510 )  
               b(3) = ( -0.000246  0.000759  1.026310 )  


     PseudoPot. # 1 for Mo read from file:
     ~/pseudo/Mo.pw91-n-van.UPF
     MD5 check sum: Not computed, couldn't open file
     Pseudo is Ultrasoft + core correction, Zval =  6.0
     Generated by new atomic code, or converted to UPF format
     Using radial grid of  965 points,  3 beta functions with: 
                l(1) =   1
                l(2) =   2
                l(3) =   2
     Q(r) pseudized with  8 coefficients,  rinner =    1.000   1.000   1.000
                                                       1.200   1.200

     PseudoPot. # 2 for S  read from file:
     ~/pseudo/S.pw91-van_ak.UPF
     MD5 check sum: Not computed, couldn't open file
     Pseudo is Ultrasoft, Zval =  6.0
     Generated by new atomic code, or converted to UPF format
     Using radial grid of  811 points,  6 beta functions with: 
                l(1) =   0
                l(2) =   0
                l(3) =   1
                l(4) =   1
                l(5) =   2
                l(6) =   2
     Q(r) pseudized with  8 coefficients,  rinner =    1.100   1.100   1.100
                                                       1.100   1.100

     atomic species   valence    mass     pseudopotential
        Mo             6.00    95.50000     Mo( 1.00)
        S              6.00    32.06500     S ( 1.00)

     No symmetry found



   Cartesian axes

     site n.     atom                  positions (alat units)
         1           Mo  tau(   1) = (   0.3496303   0.4831047   0.3942439  )
         2           Mo  tau(   2) = (   0.6436407   0.4013320   0.3396216  )
         3           Mo  tau(   3) = (   0.5255298   0.4597664   0.6073333  )
         4           Mo  tau(   4) = (   0.5159725   0.4279280   0.3471059  )
         5           Mo  tau(   5) = (   0.3171242   0.3973098   0.4877270  )
         6           Mo  tau(   6) = (   0.3675247   0.5157103   0.5191686  )
         7           Mo  tau(   7) = (   0.6030088   0.3498674   0.4968167  )
         8           Mo  tau(   8) = (   0.4670657   0.3215124   0.5249603  )
         9           S   tau(   9) = (   0.5167701   0.3782611   0.4406105  )
        10           S   tau(  10) = (   0.3412199   0.5844264   0.4387038  )
        11           S   tau(  11) = (   0.5469303   0.4819287   0.7034337  )
        12           S   tau(  12) = (   0.6854410   0.3471356   0.4239951  )
        13           S   tau(  13) = (   0.4621158   0.5455510   0.5707640  )
        14           S   tau(  14) = (   0.5556483   0.2633724   0.5422230  )
        15           S   tau(  15) = (   0.6211322   0.4380185   0.5581433  )
        16           S   tau(  16) = (   0.2627192   0.4156019   0.3947968  )
        17           S   tau(  17) = (   0.4179908   0.4735054   0.3094548  )
        18           S   tau(  18) = (   0.5970731   0.4934977   0.3720292  )
        19           S   tau(  19) = (   0.4560645   0.3777162   0.6142670  )
        20           S   tau(  20) = (   0.4132661   0.4363981   0.4658739  )
        21           S   tau(  21) = (   0.7199011   0.4181814   0.2764420  )
        22           S   tau(  22) = (   0.3585752   0.2940453   0.5017532  )
        23           S   tau(  23) = (   0.5615478   0.3493736   0.2915797  )
        24           S   tau(  24) = (   0.2903900   0.4593366   0.5746067  )

     number of k points=     1  Marzari-Vanderbilt smearing, width (Ry)=  0.0200
                       cart. coord. in units 2pi/alat
        k(    1) = (   0.0000000   0.0000000   0.0000000), wk =   2.0000000

     Dense  grid:  3157030 G-vectors     FFT dimensions: ( 250, 216, 240)

     Smooth grid:  1116161 G-vectors     FFT dimensions: ( 180, 150, 180)

     Estimated max dynamical RAM per process >     802.55 MB

     Estimated total dynamical RAM >      15.67 GB

     Initial potential from superposition of free atoms

     starting charge  143.98738, renormalised to  144.00000

     negative rho (up, down):  7.566E-03 0.000E+00
     Starting wfcs are  136 randomized atomic wfcs

     total cpu time spent up to now is       10.0 secs

     Self-consistent Calculation

     iteration #  1     ecut=    45.00 Ry     beta= 0.70
     Davidson diagonalization with overlap
     ethr =  1.00E-02,  avg # of iterations =  2.0

     negative rho (up, down):  9.233E-03 0.000E+00

     total cpu time spent up to now is       17.4 secs

     total energy              =    -561.18206442 Ry
     Harris-Foulkes estimate   =    -563.53675662 Ry
     estimated scf accuracy    <       5.60885349 Ry

     iteration #  2     ecut=    45.00 Ry     beta= 0.70
     Davidson diagonalization with overlap
     ethr =  3.90E-03,  avg # of iterations =  3.0

     negative rho (up, down):  5.552E-03 0.000E+00

     total cpu time spent up to now is       24.9 secs

     total energy              =    -562.11689808 Ry
     Harris-Foulkes estimate   =    -562.84569810 Ry
     estimated scf accuracy    <       3.49383238 Ry

     iteration #  3     ecut=    45.00 Ry     beta= 0.70
     Davidson diagonalization with overlap
     ethr =  2.43E-03,  avg # of iterations =  2.0

     negative rho (up, down):  4.479E-03 0.000E+00

     total cpu time spent up to now is       31.6 secs

     total energy              =    -562.42302217 Ry
     Harris-Foulkes estimate   =    -562.50731813 Ry
     estimated scf accuracy    <       0.68753323 Ry

     iteration #  4     ecut=    45.00 Ry     beta= 0.70
     Davidson diagonalization with overlap
     ethr =  4.77E-04,  avg # of iterations =  3.0

     negative rho (up, down):  2.899E-03 0.000E+00

     total cpu time spent up to now is       38.6 secs

     total energy              =    -562.48048977 Ry
     Harris-Foulkes estimate   =    -562.50813051 Ry
     estimated scf accuracy    <       0.10816022 Ry

     iteration #  5     ecut=    45.00 Ry     beta= 0.70
     Davidson diagonalization with overlap
     ethr =  7.51E-05,  avg # of iterations =  7.0

     negative rho (up, down):  2.349E-03 0.000E+00

     total cpu time spent up to now is       46.5 secs

     total energy              =    -562.49062984 Ry
     Harris-Foulkes estimate   =    -562.51428617 Ry
     estimated scf accuracy    <       0.16211752 Ry

     iteration #  6     ecut=    45.00 Ry     beta= 0.70
     Davidson diagonalization with overlap
     ethr =  7.51E-05,  avg # of iterations =  3.0

     negative rho (up, down):  2.019E-03 0.000E+00

     total cpu time spent up to now is       53.5 secs

     total energy              =    -562.49673660 Ry
     Harris-Foulkes estimate   =    -562.50369428 Ry
     estimated scf accuracy    <       0.03881570 Ry

     iteration #  7     ecut=    45.00 Ry     beta= 0.70
     Davidson diagonalization with overlap

     Program PWSCF v.6.4 starts on 12Aug2021 at 13:48:56 

     This program is part of the open-source Quantum ESPRESSO suite
     for quantum simulation of materials; please cite
         "P. Giannozzi et al., J. Phys.:Condens. Matter 21 395502 (2009);
         "P. Giannozzi et al., J. Phys.:Condens. Matter 29 465901 (2017);
          URL http://www.quantum-espresso.org", 
     in publications or presentations arising from this work. More details at
     http://www.quantum-espresso.org/quote

     Parallel version (MPI), running on    40 processors

     MPI processes distributed on     1 nodes
     R & G space division:  proc/nbgrp/npool/nimage =      40
     Waiting for input...
     Reading input from standard input
Warning: card    &IONS ignored
Warning: card      ION_DYNAMICS = 'BFGS' ignored
Warning: card   / ignored
Warning: card    &CELL ignored
Warning: card      CELL_DYNAMICS = 'BFGS', ignored
Warning: card    / ignored

     Current dimensions of program PWSCF are:
     Max number of different atomic species (ntypx) = 10
     Max number of k-points (npk) =  40000
     Max angular momentum in pseudopotentials (lmaxx) =  3

     gamma-point specific algorithms are used

     Subspace diagonalization in iterative solution of the eigenvalue problem:
     one sub-group per band group will be used
     scalapack distributed-memory algorithm (size of sub-group:  4*  4 procs)

 
     Parallelization info
     --------------------
     sticks:   dense  smooth     PW     G-vecs:    dense   smooth      PW
     Min         992     496    123               157838    55802    6972
     Max         994     499    126               157856    55814    6980
     Sum       39757   19889   4965              6314059  2232321  279065
 


     bravais-lattice index     =            0
     lattice parameter (alat)  =      40.4819  a.u.
     unit-cell volume          =   54738.7764 (a.u.)^3
     number of atoms/cell      =           24
     number of atomic types    =            2
     number of electrons       =       144.00
     number of Kohn-Sham states=           86
     kinetic-energy cutoff     =      45.0000  Ry
     charge density cutoff     =     360.0000  Ry
     convergence threshold     =      1.0E-06
     mixing beta               =       0.7000
     number of iterations used =            8  local-TF  mixing
     Exchange-correlation      = SLA PW GGX GGC ( 1  4  2  2 0 0)

     celldm(1)=  40.481885  celldm(2)=   0.000000  celldm(3)=   0.000000
     celldm(4)=   0.000000  celldm(5)=   0.000000  celldm(6)=   0.000000

     crystal axes: (cart. coord. in units of alat)
               a(1) = (   0.999999  -0.001271   0.000241 )  
               a(2) = (  -0.001016   0.846823  -0.000627 )  
               a(3) = (   0.002696   0.025996   0.974346 )  

     reciprocal axes: (cart. coord. in units 2 pi/alat)
               b(1) = (  1.000003  0.001198 -0.002799 )  
               b(2) = (  0.001508  1.180863 -0.031510 )  
               b(3) = ( -0.000246  0.000759  1.026310 )  


     PseudoPot. # 1 for Mo read from file:
     ~/pseudo/Mo.pw91-n-van.UPF
     MD5 check sum: Not computed, couldn't open file
     Pseudo is Ultrasoft + core correction, Zval =  6.0
     Generated by new atomic code, or converted to UPF format
     Using radial grid of  965 points,  3 beta functions with: 
                l(1) =   1
                l(2) =   2
                l(3) =   2
     Q(r) pseudized with  8 coefficients,  rinner =    1.000   1.000   1.000
                                                       1.200   1.200

     PseudoPot. # 2 for S  read from file:
     ~/pseudo/S.pw91-van_ak.UPF
     MD5 check sum: Not computed, couldn't open file
     Pseudo is Ultrasoft, Zval =  6.0
     Generated by new atomic code, or converted to UPF format
     Using radial grid of  811 points,  6 beta functions with: 
                l(1) =   0
                l(2) =   0
                l(3) =   1
                l(4) =   1
                l(5) =   2
                l(6) =   2
     Q(r) pseudized with  8 coefficients,  rinner =    1.100   1.100   1.100
                                                       1.100   1.100

     atomic species   valence    mass     pseudopotential
        Mo             6.00    95.50000     Mo( 1.00)
        S              6.00    32.06500     S ( 1.00)

     No symmetry found



   Cartesian axes

     site n.     atom                  positions (alat units)
         1           Mo  tau(   1) = (   0.3496303   0.4831047   0.3942439  )
         2           Mo  tau(   2) = (   0.6436407   0.4013320   0.3396216  )
         3           Mo  tau(   3) = (   0.5255298   0.4597664   0.6073333  )
         4           Mo  tau(   4) = (   0.5159725   0.4279280   0.3471059  )
         5           Mo  tau(   5) = (   0.3171242   0.3973098   0.4877270  )
         6           Mo  tau(   6) = (   0.3675247   0.5157103   0.5191686  )
         7           Mo  tau(   7) = (   0.6030088   0.3498674   0.4968167  )
         8           Mo  tau(   8) = (   0.4670657   0.3215124   0.5249603  )
         9           S   tau(   9) = (   0.5167701   0.3782611   0.4406105  )
        10           S   tau(  10) = (   0.3412199   0.5844264   0.4387038  )
        11           S   tau(  11) = (   0.5469303   0.4819287   0.7034337  )
        12           S   tau(  12) = (   0.6854410   0.3471356   0.4239951  )
        13           S   tau(  13) = (   0.4621158   0.5455510   0.5707640  )
        14           S   tau(  14) = (   0.5556483   0.2633724   0.5422230  )
        15           S   tau(  15) = (   0.6211322   0.4380185   0.5581433  )
        16           S   tau(  16) = (   0.2627192   0.4156019   0.3947968  )
        17           S   tau(  17) = (   0.4179908   0.4735054   0.3094548  )
        18           S   tau(  18) = (   0.5970731   0.4934977   0.3720292  )
        19           S   tau(  19) = (   0.4560645   0.3777162   0.6142670  )
        20           S   tau(  20) = (   0.4132661   0.4363981   0.4658739  )
        21           S   tau(  21) = (   0.7199011   0.4181814   0.2764420  )
        22           S   tau(  22) = (   0.3585752   0.2940453   0.5017532  )
        23           S   tau(  23) = (   0.5615478   0.3493736   0.2915797  )
        24           S   tau(  24) = (   0.2903900   0.4593366   0.5746067  )

     number of k points=     1  Marzari-Vanderbilt smearing, width (Ry)=  0.0200
                       cart. coord. in units 2pi/alat
        k(    1) = (   0.0000000   0.0000000   0.0000000), wk =   2.0000000

     Dense  grid:  3157030 G-vectors     FFT dimensions: ( 250, 216, 240)

     Smooth grid:  1116161 G-vectors     FFT dimensions: ( 180, 150, 180)

     Estimated max dynamical RAM per process >     411.10 MB

     Estimated total dynamical RAM >      16.06 GB

     Initial potential from superposition of free atoms

     starting charge  143.98738, renormalised to  144.00000

     negative rho (up, down):  7.566E-03 0.000E+00
     Starting wfcs are  136 randomized atomic wfcs

     total cpu time spent up to now is       15.7 secs

     Self-consistent Calculation

     iteration #  1     ecut=    45.00 Ry     beta= 0.70
     Davidson diagonalization with overlap
     ethr =  1.00E-02,  avg # of iterations =  2.0

     negative rho (up, down):  9.176E-03 0.000E+00

     total cpu time spent up to now is       30.4 secs

     total energy              =    -561.18254559 Ry
     Harris-Foulkes estimate   =    -563.53675374 Ry
     estimated scf accuracy    <       5.60784641 Ry

     iteration #  2     ecut=    45.00 Ry     beta= 0.70
     Davidson diagonalization with overlap
     ethr =  3.89E-03,  avg # of iterations =  3.0

     negative rho (up, down):  5.542E-03 0.000E+00

     total cpu time spent up to now is       45.1 secs

     total energy              =    -562.11708888 Ry
     Harris-Foulkes estimate   =    -562.84612380 Ry
     estimated scf accuracy    <       3.49636202 Ry

     iteration #  3     ecut=    45.00 Ry     beta= 0.70
     Davidson diagonalization with overlap
     ethr =  2.43E-03,  avg # of iterations =  2.0

     negative rho (up, down):  4.471E-03 0.000E+00

     total cpu time spent up to now is       58.5 secs

     total energy              =    -562.42296356 Ry
     Harris-Foulkes estimate   =    -562.50697139 Ry
     estimated scf accuracy    <       0.68464321 Ry

     iteration #  4     ecut=    45.00 Ry     beta= 0.70
     Davidson diagonalization with overlap
     ethr =  4.75E-04,  avg # of iterations =  3.0

     negative rho (up, down):  2.905E-03 0.000E+00

     total cpu time spent up to now is       72.4 secs

     total energy              =    -562.48153022 Ry
     Harris-Foulkes estimate   =    -562.50942811 Ry
     estimated scf accuracy    <       0.10842961 Ry

     iteration #  5     ecut=    45.00 Ry     beta= 0.70
     Davidson diagonalization with overlap
     ethr =  7.53E-05,  avg # of iterations =  3.0

     negative rho (up, down):  2.361E-03 0.000E+00

     total cpu time spent up to now is       87.9 secs

     total energy              =    -562.49033402 Ry
     Harris-Foulkes estimate   =    -562.51421602 Ry
     estimated scf accuracy    <       0.16817344 Ry

     iteration #  6     ecut=    45.00 Ry     beta= 0.70
     Davidson diagonalization with overlap
     ethr =  7.53E-05,  avg # of iterations =  3.0

     negative rho (up, down):  2.012E-03 0.000E+00

     total cpu time spent up to now is      101.7 secs

     total energy              =    -562.49699312 Ry
     Harris-Foulkes estimate   =    -562.50353832 Ry
     estimated scf accuracy    <       0.03624448 Ry

     iteration #  7     ecut=    45.00 Ry     beta= 0.70
     Davidson diagonalization with overlap
     ethr =  2.52E-05,  avg # of iterations = 10.0

     negative rho (up, down):  2.806E-03 0.000E+00

     total cpu time spent up to now is      116.2 secs

     total energy              =    -562.49545883 Ry
     Harris-Foulkes estimate   =    -562.49923059 Ry
     estimated scf accuracy    <       0.01045958 Ry

     iteration #  8     ecut=    45.00 Ry     beta= 0.70
     Davidson diagonalization with overlap
     ethr =  7.26E-06,  avg # of iterations =  5.0

     negative rho (up, down):  5.291E-03 0.000E+00

     total cpu time spent up to now is      130.2 secs

     total energy              =    -562.49349730 Ry
     Harris-Foulkes estimate   =    -562.49674424 Ry
     estimated scf accuracy    <       0.01443094 Ry

     iteration #  9     ecut=    45.00 Ry     beta= 0.70
     Davidson diagonalization with overlap
     ethr =  7.26E-06,  avg # of iterations =  1.0

     negative rho (up, down):  7.331E-03 0.000E+00

     total cpu time spent up to now is      143.6 secs

     total energy              =    -562.49327552 Ry
     Harris-Foulkes estimate   =    -562.49424189 Ry
     estimated scf accuracy    <       0.00651356 Ry

     iteration # 10     ecut=    45.00 Ry     beta= 0.70
     Davidson diagonalization with overlap
     ethr =  4.52E-06,  avg # of iterations =  1.0

     negative rho (up, down):  1.086E-02 0.000E+00

     total cpu time spent up to now is      157.1 secs

     total energy              =    -562.49400919 Ry
     Harris-Foulkes estimate   =    -562.49351985 Ry
     estimated scf accuracy    <       0.00438073 Ry

     iteration # 11     ecut=    45.00 Ry     beta= 0.70
     Davidson diagonalization with overlap
     ethr =  3.04E-06,  avg # of iterations = 13.0

     negative rho (up, down):  1.705E-02 0.000E+00

     total cpu time spent up to now is      172.1 secs

     total energy              =    -562.49550578 Ry
     Harris-Foulkes estimate   =    -562.49422265 Ry
     estimated scf accuracy    <       0.00259235 Ry

     iteration # 12     ecut=    45.00 Ry     beta= 0.70
     Davidson diagonalization with overlap
     ethr =  1.80E-06,  avg # of iterations =  2.0

     negative rho (up, down):  3.750E-02 0.000E+00

     total cpu time spent up to now is      185.7 secs

     total energy              =    -562.49680658 Ry
     Harris-Foulkes estimate   =    -562.49564457 Ry
     estimated scf accuracy    <       0.00155619 Ry

     iteration # 13     ecut=    45.00 Ry     beta= 0.70
     Davidson diagonalization with overlap
     ethr =  1.08E-06,  avg # of iterations =  2.0

     negative rho (up, down):  5.068E-02 0.000E+00

     total cpu time spent up to now is      199.1 secs

     total energy              =    -562.49791846 Ry
     Harris-Foulkes estimate   =    -562.49687284 Ry
     estimated scf accuracy    <       0.00107999 Ry

     iteration # 14     ecut=    45.00 Ry     beta= 0.70
     Davidson diagonalization with overlap
     ethr =  7.50E-07,  avg # of iterations =  1.0

     negative rho (up, down):  5.677E-02 0.000E+00

     total cpu time spent up to now is      212.5 secs

     total energy              =    -562.49870441 Ry
     Harris-Foulkes estimate   =    -562.49796776 Ry
     estimated scf accuracy    <       0.00078143 Ry

     iteration # 15     ecut=    45.00 Ry     beta= 0.70
     Davidson diagonalization with overlap
     ethr =  5.43E-07,  avg # of iterations =  1.0

     negative rho (up, down):  6.304E-02 0.000E+00

     total cpu time spent up to now is      225.9 secs

     total energy              =    -562.49912605 Ry
     Harris-Foulkes estimate   =    -562.49874191 Ry
     estimated scf accuracy    <       0.00059242 Ry

     iteration # 16     ecut=    45.00 Ry     beta= 0.70
     Davidson diagonalization with overlap
     ethr =  4.11E-07,  avg # of iterations =  2.0

     negative rho (up, down):  5.537E-02 0.000E+00

     total cpu time spent up to now is      239.4 secs

     total energy              =    -562.49909261 Ry
     Harris-Foulkes estimate   =    -562.49915139 Ry
     estimated scf accuracy    <       0.00031741 Ry

     iteration # 17     ecut=    45.00 Ry     beta= 0.70
     Davidson diagonalization with overlap
     ethr =  2.20E-07,  avg # of iterations =  3.0

     negative rho (up, down):  5.124E-02 0.000E+00

     total cpu time spent up to now is      253.0 secs

     total energy              =    -562.49918959 Ry
     Harris-Foulkes estimate   =    -562.49911374 Ry
     estimated scf accuracy    <       0.00021440 Ry

     iteration # 18     ecut=    45.00 Ry     beta= 0.70
     Davidson diagonalization with overlap
     ethr =  1.49E-07,  avg # of iterations =  2.0

     negative rho (up, down):  4.145E-02 0.000E+00

     total cpu time spent up to now is      266.6 secs

     total energy              =    -562.49928233 Ry
     Harris-Foulkes estimate   =    -562.49919822 Ry
     estimated scf accuracy    <       0.00014400 Ry

     iteration # 19     ecut=    45.00 Ry     beta= 0.70
     Davidson diagonalization with overlap
     ethr =  1.00E-07,  avg # of iterations =  2.0

     negative rho (up, down):  3.196E-02 0.000E+00

     total cpu time spent up to now is      280.2 secs

     total energy              =    -562.49927096 Ry
     Harris-Foulkes estimate   =    -562.49928962 Ry
     estimated scf accuracy    <       0.00007969 Ry

     iteration # 20     ecut=    45.00 Ry     beta= 0.70
     Davidson diagonalization with overlap
     ethr =  5.53E-08,  avg # of iterations =  1.0

     negative rho (up, down):  2.763E-02 0.000E+00

     total cpu time spent up to now is      293.5 secs

     total energy              =    -562.49928336 Ry
     Harris-Foulkes estimate   =    -562.49927335 Ry
     estimated scf accuracy    <       0.00005065 Ry

     iteration # 21     ecut=    45.00 Ry     beta= 0.70
     Davidson diagonalization with overlap
     ethr =  3.52E-08,  avg # of iterations =  3.0

     negative rho (up, down):  2.169E-02 0.000E+00

     total cpu time spent up to now is      307.1 secs

     total energy              =    -562.49927242 Ry
     Harris-Foulkes estimate   =    -562.49928593 Ry
     estimated scf accuracy    <       0.00004347 Ry

     iteration # 22     ecut=    45.00 Ry     beta= 0.70
     Davidson diagonalization with overlap
     ethr =  3.02E-08,  avg # of iterations =  2.0

     negative rho (up, down):  1.835E-02 0.000E+00

     total cpu time spent up to now is      320.7 secs

     total energy              =    -562.49929589 Ry
     Harris-Foulkes estimate   =    -562.49927504 Ry
     estimated scf accuracy    <       0.00002083 Ry

     iteration # 23     ecut=    45.00 Ry     beta= 0.70
     Davidson diagonalization with overlap
     ethr =  1.45E-08,  avg # of iterations =  2.0

     negative rho (up, down):  1.641E-02 0.000E+00

     total cpu time spent up to now is      334.2 secs

     total energy              =    -562.49930880 Ry
     Harris-Foulkes estimate   =    -562.49929684 Ry
     estimated scf accuracy    <       0.00001155 Ry

     iteration # 24     ecut=    45.00 Ry     beta= 0.70
     Davidson diagonalization with overlap
     ethr =  8.02E-09,  avg # of iterations =  3.0

     negative rho (up, down):  1.514E-02 0.000E+00

     total cpu time spent up to now is      347.8 secs

     total energy              =    -562.49931639 Ry
     Harris-Foulkes estimate   =    -562.49930953 Ry
     estimated scf accuracy    <       0.00001002 Ry

     iteration # 25     ecut=    45.00 Ry     beta= 0.70
     Davidson diagonalization with overlap
     ethr =  6.96E-09,  avg # of iterations =  1.0

     negative rho (up, down):  1.442E-02 0.000E+00

     total cpu time spent up to now is      361.2 secs

     total energy              =    -562.49931799 Ry
     Harris-Foulkes estimate   =    -562.49931685 Ry
     estimated scf accuracy    <       0.00000586 Ry

     iteration # 26     ecut=    45.00 Ry     beta= 0.70
     Davidson diagonalization with overlap
     ethr =  4.07E-09,  avg # of iterations =  1.0

     negative rho (up, down):  1.265E-02 0.000E+00

     total cpu time spent up to now is      374.6 secs

     total energy              =    -562.49931563 Ry
     Harris-Foulkes estimate   =    -562.49931822 Ry
     estimated scf accuracy    <       0.00000435 Ry

     iteration # 27     ecut=    45.00 Ry     beta= 0.70
     Davidson diagonalization with overlap
     ethr =  3.02E-09,  avg # of iterations =  1.0

     negative rho (up, down):  1.205E-02 0.000E+00

     total cpu time spent up to now is      388.1 secs

     total energy              =    -562.49931434 Ry
     Harris-Foulkes estimate   =    -562.49931586 Ry
     estimated scf accuracy    <       0.00000242 Ry

     iteration # 28     ecut=    45.00 Ry     beta= 0.70
     Davidson diagonalization with overlap
     ethr =  1.68E-09,  avg # of iterations =  4.0

     negative rho (up, down):  1.133E-02 0.000E+00

     total cpu time spent up to now is      401.8 secs

     total energy              =    -562.49931033 Ry
     Harris-Foulkes estimate   =    -562.49931445 Ry
     estimated scf accuracy    <       0.00000149 Ry

     iteration # 29     ecut=    45.00 Ry     beta= 0.70
     Davidson diagonalization with overlap
     ethr =  1.03E-09,  avg # of iterations =  3.0

     negative rho (up, down):  1.078E-02 0.000E+00

     total cpu time spent up to now is      415.6 secs

     total energy              =    -562.49930670 Ry
     Harris-Foulkes estimate   =    -562.49931041 Ry
     estimated scf accuracy    <       0.00000101 Ry

     iteration # 30     ecut=    45.00 Ry     beta= 0.70
     Davidson diagonalization with overlap
     ethr =  6.99E-10,  avg # of iterations =  2.0

     negative rho (up, down):  1.042E-02 0.000E+00

     total cpu time spent up to now is      428.0 secs

     End of self-consistent calculation

          k = 0.0000 0.0000 0.0000 (139533 PWs)   bands (ev):

   -19.1801 -18.0282 -17.5118 -17.4082 -17.2387 -17.2201 -17.1567 -17.1389
   -17.1103 -16.9536 -16.9062 -16.8956 -16.8273 -16.7946 -16.6630 -16.1300
   -11.0174 -10.4124  -9.9476  -9.9191  -9.2915  -9.1867  -8.9820  -8.9369
    -8.8492  -8.8133  -8.7580  -8.6471  -8.6366  -8.5462  -8.4713  -8.4498
    -8.3782  -8.3494  -8.3204  -8.3025  -8.2486  -8.1780  -8.1548  -8.1431
    -8.0788  -7.9882  -7.9647  -7.9301  -7.8114  -7.6289  -7.5544  -7.4671
    -7.4356  -7.4074  -7.3234  -7.2391  -7.1045  -7.0651  -7.0361  -6.9122
    -6.8367  -6.7730  -6.6022  -6.5572  -6.4412  -6.2692  -6.1898  -6.0720
    -5.7921  -5.6467  -5.5762  -5.1082  -4.9141  -4.8940  -4.6435  -4.5733
    -4.4518  -4.2646  -4.1707  -4.0914  -3.9411  -3.8797  -3.7661  -3.7053
    -3.5794  -3.5341  -3.3943  -3.3440  -3.2236  -3.1383

     the Fermi energy is    -4.4901 ev

!    total energy              =    -562.49930424 Ry
     Harris-Foulkes estimate   =    -562.49930675 Ry
     estimated scf accuracy    <       0.00000058 Ry

     The total energy is the sum of the following terms:

     one-electron contribution =   -2433.94862694 Ry
     hartree contribution      =    1239.34795720 Ry
     xc contribution           =    -221.21421625 Ry
     ewald contribution        =     853.31788015 Ry
     smearing contrib. (-TS)   =      -0.00229840 Ry

     convergence has been achieved in  30 iterations

     negative rho (up, down):  1.042E-02 0.000E+00

     Forces acting on atoms (cartesian axes, Ry/au):

     atom    1 type  1   force =     0.00453274    0.01163627   -0.02761461
     atom    2 type  1   force =     0.00242589   -0.00826634    0.01330118
     atom    3 type  1   force =    -0.00751784   -0.00900955   -0.00884437
     atom    4 type  1   force =    -0.02383310    0.00202511    0.00740227
     atom    5 type  1   force =    -0.01057674   -0.01909313    0.00904478
     atom    6 type  1   force =     0.01103450    0.00546308    0.01885843
     atom    7 type  1   force =    -0.01974040    0.01065026   -0.00133609
     atom    8 type  1   force =     0.00017411    0.01581146   -0.01468372
     atom    9 type  2   force =     0.02005292   -0.00378809   -0.01668587
     atom   10 type  2   force =    -0.01931356   -0.02408126    0.00175489
     atom   11 type  2   force =    -0.00310081   -0.00107532   -0.01719450
     atom   12 type  2   force =    -0.01035773   -0.00442001    0.00963777
     atom   13 type  2   force =    -0.01212503   -0.02814569   -0.00482958
     atom   14 type  2   force =     0.00927744    0.00056393    0.02059026
     atom   15 type  2   force =    -0.00170729   -0.00835428    0.00414383
     atom   16 type  2   force =     0.00354633    0.01661989    0.01444421
     atom   17 type  2   force =    -0.00231387   -0.00399508    0.02083641
     atom   18 type  2   force =     0.00925251    0.01589498    0.00336280
     atom   19 type  2   force =    -0.00040501   -0.00373082    0.01412998
     atom   20 type  2   force =     0.03908508    0.00011412    0.00543413
     atom   21 type  2   force =    -0.00252252    0.00678687   -0.01277231
     atom   22 type  2   force =     0.01411982    0.03601753   -0.00557326
     atom   23 type  2   force =     0.00380891   -0.01589408   -0.01484252
     atom   24 type  2   force =    -0.00379635    0.00827016   -0.01856411

     Total force =     0.116275     Total SCF correction =     0.000461
 
     init_run     :     14.31s CPU     15.00s WALL (       1 calls)
     electrons    :    381.87s CPU    412.28s WALL (       1 calls)
     forces       :      7.07s CPU      7.60s WALL (       1 calls)

     Called by init_run:
     wfcinit      :      2.50s CPU      2.56s WALL (       1 calls)
     potinit      :      2.71s CPU      2.77s WALL (       1 calls)
     hinit0       :      2.88s CPU      2.95s WALL (       1 calls)

     Called by electrons:
     c_bands      :    114.29s CPU    116.93s WALL (      30 calls)
     sum_band     :    141.83s CPU    156.05s WALL (      30 calls)
     v_of_rho     :     22.90s CPU     23.73s WALL (      31 calls)
     newd         :     69.44s CPU     81.29s WALL (      31 calls)
     mix_rho      :     31.61s CPU     32.71s WALL (      30 calls)

     Called by c_bands:
     init_us_2    :      1.67s CPU      1.70s WALL (      61 calls)
     regterg      :    108.32s CPU    110.92s WALL (      30 calls)

     Called by sum_band:
     sum_band:bec :      0.01s CPU      0.01s WALL (      30 calls)
     addusdens    :    109.61s CPU    123.23s WALL (      30 calls)

     Called by *egterg:
     h_psi        :     92.37s CPU     94.22s WALL (     115 calls)
     s_psi        :      3.57s CPU      3.58s WALL (     115 calls)
     g_psi        :      0.23s CPU      0.23s WALL (      84 calls)
     rdiaghg      :      1.73s CPU      1.74s WALL (     114 calls)

     Called by h_psi:
     h_psi:pot    :     91.85s CPU     93.70s WALL (     115 calls)
     h_psi:calbec :      3.14s CPU      3.16s WALL (     115 calls)
     vloc_psi     :     84.90s CPU     86.66s WALL (     115 calls)
     add_vuspsi   :      3.82s CPU      3.87s WALL (     115 calls)

     General routines
     calbec       :      4.31s CPU      4.34s WALL (     149 calls)
     fft          :     29.09s CPU     30.36s WALL (     348 calls)
     ffts         :     19.75s CPU     20.69s WALL (     656 calls)
     fftw         :     83.88s CPU     85.94s WALL (    6926 calls)
     interpolate  :      3.82s CPU      3.99s WALL (      31 calls)
 
     Parallel routines
     fft_scatt_xy :     23.01s CPU     23.12s WALL (    7930 calls)
     fft_scatt_yz :     39.95s CPU     43.85s WALL (    7930 calls)
 
     PWSCF        :   6m43.97s CPU   7m15.71s WALL

 
   This run was terminated on:  13:56:12  12Aug2021            

=------------------------------------------------------------------------------=
   JOB DONE.
=------------------------------------------------------------------------------=
