
     Program PWSCF v.6.4 starts on 14Oct2021 at 10: 2:54 

     This program is part of the open-source Quantum ESPRESSO suite
     for quantum simulation of materials; please cite
         "P. Giannozzi et al., J. Phys.:Condens. Matter 21 395502 (2009);
         "P. Giannozzi et al., J. Phys.:Condens. Matter 29 465901 (2017);
          URL http://www.quantum-espresso.org", 
     in publications or presentations arising from this work. More details at
     http://www.quantum-espresso.org/quote

     Parallel version (MPI), running on    40 processors

     MPI processes distributed on     1 nodes
     R & G space division:  proc/nbgrp/npool/nimage =      40
     Waiting for input...
     Reading input from standard input
Warning: card    &IONS ignored
Warning: card      ION_DYNAMICS = 'BFGS' ignored
Warning: card   / ignored
Warning: card    &CELL ignored
Warning: card      CELL_DYNAMICS = 'BFGS', ignored
Warning: card    / ignored

     Current dimensions of program PWSCF are:
     Max number of different atomic species (ntypx) = 10
     Max number of k-points (npk) =  40000
     Max angular momentum in pseudopotentials (lmaxx) =  3

     Subspace diagonalization in iterative solution of the eigenvalue problem:
     one sub-group per band group will be used
     scalapack distributed-memory algorithm (size of sub-group:  4*  4 procs)

 
     Parallelization info
     --------------------
     sticks:   dense  smooth     PW     G-vecs:    dense   smooth      PW
     Min          91      45     12                17989     6350     916
     Max          92      46     13                18009     6367     938
     Sum        3659    1817    507               719855   254231   37101
 


     bravais-lattice index     =            0
     lattice parameter (alat)  =      12.1602  a.u.
     unit-cell volume          =    6238.6350 (a.u.)^3
     number of atoms/cell      =           36
     number of atomic types    =            2
     number of electrons       =       216.00
     number of Kohn-Sham states=          130
     kinetic-energy cutoff     =      45.0000  Ry
     charge density cutoff     =     360.0000  Ry
     convergence threshold     =      1.0E-06
     mixing beta               =       0.7000
     number of iterations used =            8  local-TF  mixing
     Exchange-correlation      = SLA PW GGX GGC ( 1  4  2  2 0 0)

     celldm(1)=  12.160177  celldm(2)=   0.000000  celldm(3)=   0.000000
     celldm(4)=   0.000000  celldm(5)=   0.000000  celldm(6)=   0.000000

     crystal axes: (cart. coord. in units of alat)
               a(1) = (   1.000000   0.000000   0.000000 )  
               a(2) = (  -0.504691   0.863391   0.000000 )  
               a(3) = (  -0.150244  -0.599958   4.018484 )  

     reciprocal axes: (cart. coord. in units 2 pi/alat)
               b(1) = (  1.000000  0.584544  0.124661 )  
               b(2) = (  0.000000  1.158223  0.172922 )  
               b(3) = (  0.000000  0.000000  0.248850 )  


     PseudoPot. # 1 for Mo read from file:
     ~/pseudo/Mo.pw91-n-van.UPF
     MD5 check sum: Not computed, couldn't open file
     Pseudo is Ultrasoft + core correction, Zval =  6.0
     Generated by new atomic code, or converted to UPF format
     Using radial grid of  965 points,  3 beta functions with: 
                l(1) =   1
                l(2) =   2
                l(3) =   2
     Q(r) pseudized with  8 coefficients,  rinner =    1.000   1.000   1.000
                                                       1.200   1.200

     PseudoPot. # 2 for S  read from file:
     ~/pseudo/S.pw91-van_ak.UPF
     MD5 check sum: Not computed, couldn't open file
     Pseudo is Ultrasoft, Zval =  6.0
     Generated by new atomic code, or converted to UPF format
     Using radial grid of  811 points,  6 beta functions with: 
                l(1) =   0
                l(2) =   0
                l(3) =   1
                l(4) =   1
                l(5) =   2
                l(6) =   2
     Q(r) pseudized with  8 coefficients,  rinner =    1.100   1.100   1.100
                                                       1.100   1.100

     atomic species   valence    mass     pseudopotential
        Mo             6.00    95.50000     Mo( 1.00)
        S              6.00    32.06500     S ( 1.00)

     No symmetry found



   Cartesian axes

     site n.     atom                  positions (alat units)
         1           Mo  tau(   1) = (   0.5667678  -0.0358721   2.6117649  )
         2           Mo  tau(   2) = (   0.0656196  -0.0343561   2.6139407  )
         3           Mo  tau(   3) = (   0.3175634   0.4002220   2.6155431  )
         4           Mo  tau(   4) = (  -0.1937111   0.4012167   2.6143592  )
         5           Mo  tau(   5) = (   0.0599044   0.6759287   1.3095038  )
         6           Mo  tau(   6) = (  -0.4450342   0.6789034   1.3084194  )
         7           Mo  tau(   7) = (   0.3074542   0.2498197   1.3077904  )
         8           Mo  tau(   8) = (  -0.1888740   0.2433031   1.3060474  )
         9           Mo  tau(   9) = (  -0.0331266   0.0510711   0.1008573  )
        10           Mo  tau(  10) = (   0.4726770   0.0525268   0.0976994  )
        11           Mo  tau(  11) = (  -0.2869224   0.4761988   0.0975951  )
        12           Mo  tau(  12) = (   0.2161054   0.4820365   0.0980424  )
        13           S   tau(  13) = (   0.0678012   0.1718533   3.8718862  )
        14           S   tau(  14) = (  -0.4342551   0.1714038   3.8746317  )
        15           S   tau(  15) = (   0.3153542  -0.2600331   3.8673526  )
        16           S   tau(  16) = (  -0.1828567  -0.2604980   3.8709896  )
        17           S   tau(  17) = (  -0.4390999   0.2549094   2.8635604  )
        18           S   tau(  18) = (   0.0602620   0.2608754   2.8574707  )
        19           S   tau(  19) = (  -0.1850872  -0.1750630   2.8605607  )
        20           S   tau(  20) = (   0.3137808  -0.1740804   2.8588903  )
        21           S   tau(  21) = (   0.5643899   0.2498405   2.3664442  )
        22           S   tau(  22) = (   0.0639355   0.2545873   2.3706851  )
        23           S   tau(  23) = (   0.8199932  -0.1811486   2.3685101  )
        24           S   tau(  24) = (   0.3162611  -0.1812917   2.3685572  )
        25           S   tau(  25) = (   0.3102185   0.5312016   1.5600106  )
        26           S   tau(  26) = (  -0.1904294   0.5281238   1.5519953  )
        27           S   tau(  27) = (   0.5624409   0.1000987   1.5493094  )
        28           S   tau(  28) = (   0.0636436   0.1008531   1.5544173  )
        29           S   tau(  29) = (   0.3079777   0.5392739   1.0578163  )
        30           S   tau(  30) = (  -0.1937555   0.5369158   1.0643260  )
        31           S   tau(  31) = (   0.5583278   0.1037873   1.0622979  )
        32           S   tau(  32) = (   0.0600452   0.1049378   1.0585915  )
        33           S   tau(  33) = (   0.2151950   0.7691082   0.3477305  )
        34           S   tau(  34) = (  -0.2845718   0.7658123   0.3392057  )
        35           S   tau(  35) = (   0.4645578   0.3365695   0.3478438  )
        36           S   tau(  36) = (  -0.0359609   0.3362260   0.3474584  )

     number of k points=     5  Marzari-Vanderbilt smearing, width (Ry)=  0.0200
                       cart. coord. in units 2pi/alat
        k(    1) = (   0.0000000   0.0000000   0.0000000), wk =   0.2222222
        k(    2) = (   0.0000000   0.3860745   0.0576407), wk =   0.4444444
        k(    3) = (   0.3333333   0.1948482   0.0415535), wk =   0.4444444
        k(    4) = (   0.3333333   0.5809227   0.0991942), wk =   0.4444444
        k(    5) = (   0.3333333  -0.1912263  -0.0160872), wk =   0.4444444

     Dense  grid:   719855 G-vectors     FFT dimensions: (  75,  75, 300)

     Smooth grid:   254231 G-vectors     FFT dimensions: (  54,  54, 216)

     Estimated max dynamical RAM per process >     114.01 MB

     Estimated total dynamical RAM >       4.45 GB

     Initial potential from superposition of free atoms

     starting charge  215.98107, renormalised to  216.00000
     Starting wfcs are  204 randomized atomic wfcs

     total cpu time spent up to now is        5.0 secs

     Self-consistent Calculation

     iteration #  1     ecut=    45.00 Ry     beta= 0.70
     Davidson diagonalization with overlap
     ethr =  1.00E-02,  avg # of iterations =  2.0

     total cpu time spent up to now is       11.4 secs

     total energy              =    -844.22843580 Ry
     Harris-Foulkes estimate   =    -846.84493786 Ry
     estimated scf accuracy    <       6.69192033 Ry

     iteration #  2     ecut=    45.00 Ry     beta= 0.70
     Davidson diagonalization with overlap
     ethr =  3.10E-03,  avg # of iterations =  2.8

     total cpu time spent up to now is       16.9 secs

     total energy              =    -845.46818175 Ry
     Harris-Foulkes estimate   =    -845.62670909 Ry
     estimated scf accuracy    <       0.84060636 Ry

     iteration #  3     ecut=    45.00 Ry     beta= 0.70
     Davidson diagonalization with overlap
     ethr =  3.89E-04,  avg # of iterations =  2.0

     total cpu time spent up to now is       21.7 secs

     total energy              =    -845.45730097 Ry
     Harris-Foulkes estimate   =    -845.54508593 Ry
     estimated scf accuracy    <       0.22047856 Ry

     iteration #  4     ecut=    45.00 Ry     beta= 0.70
     Davidson diagonalization with overlap
     ethr =  1.02E-04,  avg # of iterations =  3.6

     total cpu time spent up to now is       28.4 secs

     total energy              =    -845.49977472 Ry
     Harris-Foulkes estimate   =    -845.55938990 Ry
     estimated scf accuracy    <       0.19448035 Ry

     iteration #  5     ecut=    45.00 Ry     beta= 0.70
     Davidson diagonalization with overlap
     ethr =  9.00E-05,  avg # of iterations =  2.6

     total cpu time spent up to now is       33.6 secs

     total energy              =    -845.52894691 Ry
     Harris-Foulkes estimate   =    -845.53003872 Ry
     estimated scf accuracy    <       0.00662328 Ry

     iteration #  6     ecut=    45.00 Ry     beta= 0.70
     Davidson diagonalization with overlap
     ethr =  3.07E-06,  avg # of iterations =  8.6

     total cpu time spent up to now is       45.4 secs

     total energy              =    -845.52920885 Ry
     Harris-Foulkes estimate   =    -845.53234001 Ry
     estimated scf accuracy    <       0.01544394 Ry

     iteration #  7     ecut=    45.00 Ry     beta= 0.70
     Davidson diagonalization with overlap
     ethr =  3.07E-06,  avg # of iterations =  2.2

     total cpu time spent up to now is       50.4 secs

     total energy              =    -845.52961728 Ry
     Harris-Foulkes estimate   =    -845.53000114 Ry
     estimated scf accuracy    <       0.00269851 Ry

     iteration #  8     ecut=    45.00 Ry     beta= 0.70
     Davidson diagonalization with overlap
     ethr =  1.25E-06,  avg # of iterations =  3.0

     total cpu time spent up to now is       55.5 secs

     total energy              =    -845.52957726 Ry
     Harris-Foulkes estimate   =    -845.52979676 Ry
     estimated scf accuracy    <       0.00108432 Ry

     iteration #  9     ecut=    45.00 Ry     beta= 0.70
     Davidson diagonalization with overlap
     ethr =  5.02E-07,  avg # of iterations =  4.8

     total cpu time spent up to now is       61.9 secs

     total energy              =    -845.52972478 Ry
     Harris-Foulkes estimate   =    -845.52974630 Ry
     estimated scf accuracy    <       0.00006587 Ry

     iteration # 10     ecut=    45.00 Ry     beta= 0.70
     Davidson diagonalization with overlap
     ethr =  3.05E-08,  avg # of iterations =  4.0

     total cpu time spent up to now is       69.2 secs

     total energy              =    -845.52973889 Ry
     Harris-Foulkes estimate   =    -845.52976916 Ry
     estimated scf accuracy    <       0.00026173 Ry

     iteration # 11     ecut=    45.00 Ry     beta= 0.70
     Davidson diagonalization with overlap
     ethr =  3.05E-08,  avg # of iterations =  2.0

     total cpu time spent up to now is       74.0 secs

     total energy              =    -845.52970828 Ry
     Harris-Foulkes estimate   =    -845.52974405 Ry
     estimated scf accuracy    <       0.00011695 Ry

     iteration # 12     ecut=    45.00 Ry     beta= 0.70
     Davidson diagonalization with overlap
     ethr =  3.05E-08,  avg # of iterations =  3.0

     total cpu time spent up to now is       80.3 secs

     total energy              =    -845.52972917 Ry
     Harris-Foulkes estimate   =    -845.52973419 Ry
     estimated scf accuracy    <       0.00002313 Ry

     iteration # 13     ecut=    45.00 Ry     beta= 0.70
     Davidson diagonalization with overlap
     ethr =  1.07E-08,  avg # of iterations =  2.0

     total cpu time spent up to now is       85.1 secs

     total energy              =    -845.52973110 Ry
     Harris-Foulkes estimate   =    -845.52973138 Ry
     estimated scf accuracy    <       0.00000281 Ry

     iteration # 14     ecut=    45.00 Ry     beta= 0.70
     Davidson diagonalization with overlap
     ethr =  1.30E-09,  avg # of iterations =  3.8

     total cpu time spent up to now is       91.1 secs

     total energy              =    -845.52973154 Ry
     Harris-Foulkes estimate   =    -845.52973166 Ry
     estimated scf accuracy    <       0.00000174 Ry

     iteration # 15     ecut=    45.00 Ry     beta= 0.70
     Davidson diagonalization with overlap
     ethr =  8.04E-10,  avg # of iterations =  1.0

     total cpu time spent up to now is       95.4 secs

     End of self-consistent calculation

          k = 0.0000 0.0000 0.0000 ( 31713 PWs)   bands (ev):

   -10.1095 -10.0974 -10.0909  -8.9234  -8.9203  -8.9139  -8.3975  -8.3823
    -8.3730  -8.3619  -8.3530  -8.3404  -8.3336  -8.3264  -8.2997  -8.1447
    -8.1271  -8.1186  -8.1061  -8.1028  -8.0973  -8.0655  -8.0563  -8.0409
    -1.7628  -1.7414  -1.7409  -1.7380  -1.7283  -1.7270  -1.7252  -1.7197
    -1.7133  -1.6006  -1.5811  -1.5461  -0.8357  -0.8188  -0.8082  -0.7947
    -0.7936  -0.7889  -0.7837  -0.7788  -0.7767  -0.1408  -0.1194  -0.1124
    -0.1037  -0.1001  -0.0973  -0.0792  -0.0773  -0.0590   0.7525   0.7866
     0.7872   0.7977   0.7993   0.8091   0.8508   0.8518   0.8596   1.2830
     1.3009   1.3051   1.3430   1.3698   1.3765   1.9140   1.9420   1.9596
     1.9849   1.9931   1.9967   2.0531   2.0780   2.1045   2.1597   2.2303
     2.3203   2.4154   2.4339   2.4473   2.4663   2.4728   2.4755   2.8912
     2.9026   2.9194   2.9275   2.9414   3.0084   3.0151   3.0289   3.0471
     3.2053   3.2123   3.2199   3.2408   3.2482   3.2531   3.2584   3.2619
     3.2815   3.7574   3.8525   3.9057   5.8649   5.8674   5.8757   5.9148
     5.9240   5.9300   5.9359   5.9507   5.9609   6.4135   6.4152   6.4206
     6.4259   6.4287   6.4357   6.4402   6.4463   6.4508   6.5457   6.5669
     6.5728   6.5999

          k = 0.0000 0.3861 0.0576 ( 31778 PWs)   bands (ev):

    -9.7425  -9.7306  -9.7242  -8.8804  -8.8731  -8.8693  -8.7448  -8.7425
    -8.7334  -8.4186  -8.4017  -8.3877  -8.3606  -8.3543  -8.3508  -8.3366
    -8.3289  -8.3240  -8.1300  -8.1094  -8.0873  -8.0759  -8.0601  -8.0463
    -1.3155  -1.2925  -1.2763  -1.2669  -1.2565  -1.2548  -1.2266  -1.2068
    -1.1871  -1.1754  -1.1588  -1.1364  -0.8865  -0.8569  -0.8498  -0.8442
    -0.8428  -0.8374  -0.1815  -0.1773  -0.1621   0.0374   0.0435   0.0550
     0.0793   0.1103   0.1185   0.1329   0.1543   0.1581   0.6015   0.6168
     0.6233   0.7124   0.7278   0.7545   0.7598   0.7794   0.7807   1.0728
     1.0913   1.1055   1.1120   1.1194   1.1431   1.5441   1.5521   1.5695
     1.6002   1.6103   1.6305   1.7061   1.7301   1.7452   1.8936   1.8950
     1.9061   2.1046   2.1217   2.1457   2.1660   2.1738   2.1806   2.2862
     2.3094   2.3265   2.5467   2.5648   2.5717   2.7817   2.8327   2.8846
     2.9184   2.9223   2.9346   3.3203   3.3376   3.3898   3.4300   3.4715
     3.4877   3.5335   3.5686   3.5928   5.8389   5.8663   5.8746   5.9030
     5.9494   5.9527   5.9731   5.9786   5.9864   6.0092   6.0372   6.0787
     6.1099   6.1389   6.1813   6.3022   6.3134   6.3228   6.3482   6.3798
     6.4117   6.4393

          k = 0.3333 0.1948 0.0416 ( 31769 PWs)   bands (ev):

    -9.7425  -9.7300  -9.7235  -8.8863  -8.8712  -8.8655  -8.7449  -8.7425
    -8.7365  -8.3971  -8.3886  -8.3850  -8.3741  -8.3673  -8.3632  -8.3376
    -8.3289  -8.3234  -8.1251  -8.1111  -8.0878  -8.0714  -8.0549  -8.0543
    -1.3127  -1.2917  -1.2760  -1.2682  -1.2638  -1.2560  -1.2083  -1.2039
    -1.1840  -1.1796  -1.1701  -1.1364  -0.8718  -0.8714  -0.8559  -0.8473
    -0.8449  -0.8366  -0.1826  -0.1760  -0.1605   0.0266   0.0392   0.0651
     0.0990   0.1059   0.1168   0.1429   0.1464   0.1499   0.5981   0.6221
     0.6269   0.7184   0.7333   0.7504   0.7658   0.7699   0.7839   1.0645
     1.0793   1.1122   1.1177   1.1264   1.1346   1.5401   1.5542   1.5685
     1.6040   1.6122   1.6206   1.7205   1.7302   1.7400   1.8722   1.9101
     1.9163   2.1034   2.1142   2.1276   2.1728   2.1860   2.1956   2.2744
     2.3057   2.3323   2.5527   2.5644   2.5684   2.7779   2.8338   2.8856
     2.9070   2.9296   2.9361   3.3059   3.3105   3.3842   3.4383   3.4891
     3.5101   3.5283   3.5701   3.5914   5.8371   5.8404   5.8793   5.9136
     5.9397   5.9513   5.9725   5.9795   5.9908   6.0050   6.0398   6.0754
     6.1064   6.1578   6.1867   6.2808   6.2953   6.3328   6.3755   6.3941
     6.4169   6.4480

          k = 0.3333 0.5809 0.0992 ( 31860 PWs)   bands (ev):

    -9.1583  -9.1373  -9.1325  -9.1283  -9.1147  -9.1076  -9.0912  -9.0878
    -9.0810  -8.4784  -8.4673  -8.4599  -8.4586  -8.4483  -8.4359  -8.4221
    -8.4104  -8.4030  -8.1180  -8.1058  -8.1007  -7.9323  -7.9278  -7.9261
    -1.3593  -1.3434  -1.3385  -0.9476  -0.9179  -0.9063  -0.9022  -0.8910
    -0.8835  -0.8695  -0.8672  -0.8543  -0.5725  -0.5659  -0.5628  -0.0815
    -0.0732  -0.0694   0.0691   0.0798   0.0860   0.1225   0.1258   0.1417
     0.1577   0.1824   0.1947   0.3188   0.3209   0.3349   0.3395   0.3546
     0.3562   0.3633   0.3733   0.3787   0.3800   0.3890   0.4024   0.7343
     0.7455   0.7499   0.7861   0.7885   0.7974   0.8397   0.8492   0.8683
     1.0402   1.0439   1.0459   1.7193   1.7342   1.7424   1.9208   1.9236
     1.9241   1.9345   1.9680   1.9932   2.0487   2.0543   2.0618   2.7457
     2.7624   2.7793   2.8146   2.8254   2.8350   2.8545   2.8573   2.8935
     3.0482   3.0567   3.0655   3.0861   3.0958   3.1013   3.1201   3.1209
     3.1382   3.8553   3.8574   3.8593   5.4468   5.4586   5.4707   5.6298
     5.6502   5.6664   5.6793   5.7074   5.7320   5.7534   5.7856   5.7977
     6.1527   6.1582   6.1707   6.1949   6.2021   6.2123   6.2477   6.2672
     6.2823   6.3795

          k = 0.3333-0.1912-0.0161 ( 31807 PWs)   bands (ev):

    -9.7465  -9.7347  -9.7289  -8.8992  -8.8882  -8.8828  -8.7483  -8.7468
    -8.7391  -8.3914  -8.3817  -8.3719  -8.3698  -8.3563  -8.3524  -8.3461
    -8.3402  -8.3197  -8.1101  -8.0974  -8.0870  -8.0559  -8.0497  -8.0435
    -1.3168  -1.2984  -1.2934  -1.2816  -1.2753  -1.2636  -1.2145  -1.2098
    -1.1926  -1.1811  -1.1761  -1.1398  -0.8867  -0.8669  -0.8631  -0.8620
    -0.8548  -0.8415  -0.1847  -0.1804  -0.1662   0.0094   0.0164   0.0306
     0.1048   0.1166   0.1255   0.1382   0.1483   0.1539   0.5694   0.5864
     0.5932   0.7065   0.7155   0.7246   0.7403   0.7482   0.7567   1.0634
     1.0819   1.1252   1.1523   1.1617   1.1721   1.5449   1.5672   1.5773
     1.6105   1.6215   1.6367   1.7547   1.7695   1.7786   1.9294   1.9307
     1.9427   2.0997   2.1428   2.1507   2.1638   2.1902   2.2386   2.2500
     2.2999   2.3152   2.5978   2.6061   2.6181   2.7718   2.8152   2.8760
     2.9019   2.9086   2.9288   3.2710   3.3033   3.3405   3.4330   3.4617
     3.5038   3.5220   3.5604   3.5816   5.8460   5.8572   5.8887   5.9251
     5.9382   5.9502   5.9723   5.9854   5.9935   6.0160   6.0343   6.0434
     6.1135   6.1657   6.1732   6.3089   6.3328   6.3482   6.3841   6.4047
     6.4228   6.4518

     the Fermi energy is     3.9465 ev

!    total energy              =    -845.52973083 Ry
     Harris-Foulkes estimate   =    -845.52973159 Ry
     estimated scf accuracy    <       0.00000080 Ry

     The total energy is the sum of the following terms:

     one-electron contribution =    -732.61781018 Ry
     hartree contribution      =     470.31190052 Ry
     xc contribution           =    -334.08591992 Ry
     ewald contribution        =    -249.16328295 Ry
     smearing contrib. (-TS)   =       0.02538168 Ry

     convergence has been achieved in  15 iterations

     Forces acting on atoms (cartesian axes, Ry/au):

     atom    1 type  1   force =    -0.00576264    0.00895931    0.01350632
     atom    2 type  1   force =    -0.00279133    0.01642306    0.00214514
     atom    3 type  1   force =    -0.02403298   -0.01630714   -0.00542031
     atom    4 type  1   force =     0.02638037   -0.02130497    0.00186805
     atom    5 type  1   force =    -0.00818115    0.00279514   -0.00875573
     atom    6 type  1   force =     0.01242973   -0.00478143    0.00077304
     atom    7 type  1   force =     0.01460960   -0.01096993   -0.00794248
     atom    8 type  1   force =    -0.00176373    0.01017678   -0.00117876
     atom    9 type  1   force =     0.01441254   -0.00328974   -0.00488206
     atom   10 type  1   force =    -0.01605137   -0.01097253    0.00622399
     atom   11 type  1   force =     0.01294599    0.02276113    0.00325610
     atom   12 type  1   force =    -0.00177398   -0.00106891    0.01215809
     atom   13 type  2   force =    -0.00531192   -0.00349530   -0.00292542
     atom   14 type  2   force =    -0.00317875   -0.00538414   -0.00273666
     atom   15 type  2   force =    -0.00222679   -0.00568897    0.00573658
     atom   16 type  2   force =    -0.00318852   -0.00598769    0.00221078
     atom   17 type  2   force =     0.00575632   -0.00768627   -0.00944424
     atom   18 type  2   force =     0.00436711   -0.00979462   -0.00098335
     atom   19 type  2   force =     0.00557553   -0.00179977   -0.00018263
     atom   20 type  2   force =     0.00466781   -0.00292544    0.00387164
     atom   21 type  2   force =    -0.00435336    0.00791343    0.00266091
     atom   22 type  2   force =    -0.00205201    0.00629929    0.00331968
     atom   23 type  2   force =    -0.00392212    0.00768721   -0.00580458
     atom   24 type  2   force =    -0.00351198    0.01220096   -0.00754907
     atom   25 type  2   force =    -0.00366200    0.00854282   -0.01387914
     atom   26 type  2   force =    -0.00478208    0.01022084    0.00161667
     atom   27 type  2   force =    -0.00694325    0.00631574    0.01023019
     atom   28 type  2   force =    -0.00808137    0.00432257   -0.00224513
     atom   29 type  2   force =    -0.00095490   -0.00901895    0.01381403
     atom   30 type  2   force =     0.00414303   -0.00663863   -0.00033309
     atom   31 type  2   force =     0.00012937   -0.00513659    0.00330516
     atom   32 type  2   force =     0.00288390   -0.00570639    0.00871425
     atom   33 type  2   force =    -0.00265377    0.00004188   -0.00837761
     atom   34 type  2   force =     0.00203717    0.00559649    0.00742817
     atom   35 type  2   force =     0.00021188    0.00163939   -0.01046983
     atom   36 type  2   force =     0.00462965    0.00606136   -0.00972868

     Total force =     0.087305     Total SCF correction =     0.001899
 
     init_run     :      4.00s CPU      4.20s WALL (       1 calls)
     electrons    :     88.09s CPU     90.48s WALL (       1 calls)
     forces       :      2.04s CPU      2.08s WALL (       1 calls)

     Called by init_run:
     wfcinit      :      2.21s CPU      2.30s WALL (       1 calls)
     potinit      :      0.45s CPU      0.46s WALL (       1 calls)
     hinit0       :      0.62s CPU      0.67s WALL (       1 calls)

     Called by electrons:
     c_bands      :     70.13s CPU     71.30s WALL (      15 calls)
     sum_band     :     12.31s CPU     13.04s WALL (      15 calls)
     v_of_rho     :      0.90s CPU      0.97s WALL (      16 calls)
     newd         :      3.74s CPU      4.06s WALL (      16 calls)
     mix_rho      :      1.13s CPU      1.24s WALL (      15 calls)

     Called by c_bands:
     init_us_2    :      0.94s CPU      0.98s WALL (     160 calls)
     cegterg      :     65.99s CPU     67.09s WALL (      75 calls)

     Called by sum_band:
     sum_band:bec :      0.09s CPU      0.09s WALL (      75 calls)
     addusdens    :      4.46s CPU      4.96s WALL (      15 calls)

     Called by *egterg:
     h_psi        :     35.01s CPU     35.77s WALL (     317 calls)
     s_psi        :      6.32s CPU      6.35s WALL (     317 calls)
     g_psi        :      0.10s CPU      0.10s WALL (     237 calls)
     cdiaghg      :     14.17s CPU     14.47s WALL (     312 calls)

     Called by h_psi:
     h_psi:pot    :     34.81s CPU     35.55s WALL (     317 calls)
     h_psi:calbec :      6.88s CPU      7.10s WALL (     317 calls)
     vloc_psi     :     21.56s CPU     22.06s WALL (     317 calls)
     add_vuspsi   :      6.36s CPU      6.39s WALL (     317 calls)

     General routines
     calbec       :     10.10s CPU     10.43s WALL (     412 calls)
     fft          :      0.80s CPU      0.90s WALL (     217 calls)
     ffts         :      0.61s CPU      0.71s WALL (     595 calls)
     fftw         :     23.71s CPU     24.26s WALL (   60418 calls)
     interpolate  :      0.09s CPU      0.09s WALL (      16 calls)
 
     Parallel routines
     fft_scatt_xy :      2.33s CPU      2.37s WALL (   61230 calls)
     fft_scatt_yz :     10.85s CPU     11.32s WALL (   61230 calls)
 
     PWSCF        :   1m34.75s CPU   1m37.61s WALL

 
   This run was terminated on:  10: 4:32  14Oct2021            

=------------------------------------------------------------------------------=
   JOB DONE.
=------------------------------------------------------------------------------=

     Program PWSCF v.6.4 starts on 14Oct2021 at 10:46: 8 

     This program is part of the open-source Quantum ESPRESSO suite
     for quantum simulation of materials; please cite
         "P. Giannozzi et al., J. Phys.:Condens. Matter 21 395502 (2009);
         "P. Giannozzi et al., J. Phys.:Condens. Matter 29 465901 (2017);
          URL http://www.quantum-espresso.org", 
     in publications or presentations arising from this work. More details at
     http://www.quantum-espresso.org/quote

     Parallel version (MPI), running on    40 processors

     MPI processes distributed on     1 nodes
     R & G space division:  proc/nbgrp/npool/nimage =      40
     Waiting for input...
     Reading input from standard input
Warning: card    &IONS ignored
Warning: card      ION_DYNAMICS = 'BFGS' ignored
Warning: card   / ignored
Warning: card    &CELL ignored
Warning: card      CELL_DYNAMICS = 'BFGS', ignored
Warning: card    / ignored

     Current dimensions of program PWSCF are:
     Max number of different atomic species (ntypx) = 10
     Max number of k-points (npk) =  40000
     Max angular momentum in pseudopotentials (lmaxx) =  3

     Subspace diagonalization in iterative solution of the eigenvalue problem:
     one sub-group per band group will be used
     scalapack distributed-memory algorithm (size of sub-group:  4*  4 procs)

 
     Parallelization info
     --------------------
     sticks:   dense  smooth     PW     G-vecs:    dense   smooth      PW
     Min          91      45     12                17989     6350     916
     Max          92      46     13                18009     6367     938
     Sum        3659    1817    507               719855   254231   37101
 


     bravais-lattice index     =            0
     lattice parameter (alat)  =      12.1602  a.u.
     unit-cell volume          =    6238.6350 (a.u.)^3
     number of atoms/cell      =           36
     number of atomic types    =            2
     number of electrons       =       216.00
     number of Kohn-Sham states=          130
     kinetic-energy cutoff     =      45.0000  Ry
     charge density cutoff     =     360.0000  Ry
     convergence threshold     =      1.0E-06
     mixing beta               =       0.7000
     number of iterations used =            8  local-TF  mixing
     Exchange-correlation      = SLA PW GGX GGC ( 1  4  2  2 0 0)

     celldm(1)=  12.160177  celldm(2)=   0.000000  celldm(3)=   0.000000
     celldm(4)=   0.000000  celldm(5)=   0.000000  celldm(6)=   0.000000

     crystal axes: (cart. coord. in units of alat)
               a(1) = (   1.000000   0.000000   0.000000 )  
               a(2) = (  -0.504691   0.863391   0.000000 )  
               a(3) = (  -0.150244  -0.599958   4.018484 )  

     reciprocal axes: (cart. coord. in units 2 pi/alat)
               b(1) = (  1.000000  0.584544  0.124661 )  
               b(2) = (  0.000000  1.158223  0.172922 )  
               b(3) = (  0.000000  0.000000  0.248850 )  


     PseudoPot. # 1 for Mo read from file:
     ~/pseudo/Mo.pw91-n-van.UPF
     MD5 check sum: Not computed, couldn't open file
     Pseudo is Ultrasoft + core correction, Zval =  6.0
     Generated by new atomic code, or converted to UPF format
     Using radial grid of  965 points,  3 beta functions with: 
                l(1) =   1
                l(2) =   2
                l(3) =   2
     Q(r) pseudized with  8 coefficients,  rinner =    1.000   1.000   1.000
                                                       1.200   1.200

     PseudoPot. # 2 for S  read from file:
     ~/pseudo/S.pw91-van_ak.UPF
     MD5 check sum: Not computed, couldn't open file
     Pseudo is Ultrasoft, Zval =  6.0
     Generated by new atomic code, or converted to UPF format
     Using radial grid of  811 points,  6 beta functions with: 
                l(1) =   0
                l(2) =   0
                l(3) =   1
                l(4) =   1
                l(5) =   2
                l(6) =   2
     Q(r) pseudized with  8 coefficients,  rinner =    1.100   1.100   1.100
                                                       1.100   1.100

     atomic species   valence    mass     pseudopotential
        Mo             6.00    95.50000     Mo( 1.00)
        S              6.00    32.06500     S ( 1.00)

     No symmetry found



   Cartesian axes

     site n.     atom                  positions (alat units)
         1           Mo  tau(   1) = (   0.5667678  -0.0358721   2.6117649  )
         2           Mo  tau(   2) = (   0.0656196  -0.0343561   2.6139407  )
         3           Mo  tau(   3) = (   0.3175634   0.4002220   2.6155431  )
         4           Mo  tau(   4) = (  -0.1937111   0.4012167   2.6143592  )
         5           Mo  tau(   5) = (   0.0599044   0.6759287   1.3095038  )
         6           Mo  tau(   6) = (  -0.4450342   0.6789034   1.3084194  )
         7           Mo  tau(   7) = (   0.3074542   0.2498197   1.3077904  )
         8           Mo  tau(   8) = (  -0.1888740   0.2433031   1.3060474  )
         9           Mo  tau(   9) = (  -0.0331266   0.0510711   0.1008573  )
        10           Mo  tau(  10) = (   0.4726770   0.0525268   0.0976994  )
        11           Mo  tau(  11) = (  -0.2869224   0.4761988   0.0975951  )
        12           Mo  tau(  12) = (   0.2161054   0.4820365   0.0980424  )
        13           S   tau(  13) = (   0.0678012   0.1718533   3.8718862  )
        14           S   tau(  14) = (  -0.4342551   0.1714038   3.8746317  )
        15           S   tau(  15) = (   0.3153542  -0.2600331   3.8673526  )
        16           S   tau(  16) = (  -0.1828567  -0.2604980   3.8709896  )
        17           S   tau(  17) = (  -0.4390999   0.2549094   2.8635604  )
        18           S   tau(  18) = (   0.0602620   0.2608754   2.8574707  )
        19           S   tau(  19) = (  -0.1850872  -0.1750630   2.8605607  )
        20           S   tau(  20) = (   0.3137808  -0.1740804   2.8588903  )
        21           S   tau(  21) = (   0.5643899   0.2498405   2.3664442  )
        22           S   tau(  22) = (   0.0639355   0.2545873   2.3706851  )
        23           S   tau(  23) = (   0.8199932  -0.1811486   2.3685101  )
        24           S   tau(  24) = (   0.3162611  -0.1812917   2.3685572  )
        25           S   tau(  25) = (   0.3102185   0.5312016   1.5600106  )
        26           S   tau(  26) = (  -0.1904294   0.5281238   1.5519953  )
        27           S   tau(  27) = (   0.5624409   0.1000987   1.5493094  )
        28           S   tau(  28) = (   0.0636436   0.1008531   1.5544173  )
        29           S   tau(  29) = (   0.3079777   0.5392739   1.0578163  )
        30           S   tau(  30) = (  -0.1937555   0.5369158   1.0643260  )
        31           S   tau(  31) = (   0.5583278   0.1037873   1.0622979  )
        32           S   tau(  32) = (   0.0600452   0.1049378   1.0585915  )
        33           S   tau(  33) = (   0.2151950   0.7691082   0.3477305  )
        34           S   tau(  34) = (  -0.2845718   0.7658123   0.3392057  )
        35           S   tau(  35) = (   0.4645578   0.3365695   0.3478438  )
        36           S   tau(  36) = (  -0.0359609   0.3362260   0.3474584  )

     number of k points=     5  Marzari-Vanderbilt smearing, width (Ry)=  0.0200
                       cart. coord. in units 2pi/alat
        k(    1) = (   0.0000000   0.0000000   0.0000000), wk =   0.2222222
        k(    2) = (   0.0000000   0.3860745   0.0576407), wk =   0.4444444
        k(    3) = (   0.3333333   0.1948482   0.0415535), wk =   0.4444444
        k(    4) = (   0.3333333   0.5809227   0.0991942), wk =   0.4444444
        k(    5) = (   0.3333333  -0.1912263  -0.0160872), wk =   0.4444444

     Dense  grid:   719855 G-vectors     FFT dimensions: (  75,  75, 300)

     Smooth grid:   254231 G-vectors     FFT dimensions: (  54,  54, 216)

     Estimated max dynamical RAM per process >     114.01 MB

     Estimated total dynamical RAM >       4.45 GB

     Initial potential from superposition of free atoms

     starting charge  215.98107, renormalised to  216.00000
     Starting wfcs are  204 randomized atomic wfcs

     total cpu time spent up to now is        5.5 secs

     Self-consistent Calculation

     iteration #  1     ecut=    45.00 Ry     beta= 0.70
     Davidson diagonalization with overlap
     ethr =  1.00E-02,  avg # of iterations =  2.0

     total cpu time spent up to now is       12.7 secs

     total energy              =    -844.22843580 Ry
     Harris-Foulkes estimate   =    -846.84493786 Ry
     estimated scf accuracy    <       6.69192033 Ry

     iteration #  2     ecut=    45.00 Ry     beta= 0.70
     Davidson diagonalization with overlap
     ethr =  3.10E-03,  avg # of iterations =  2.8

     total cpu time spent up to now is       19.3 secs

     total energy              =    -845.46818175 Ry
     Harris-Foulkes estimate   =    -845.62670909 Ry
     estimated scf accuracy    <       0.84060636 Ry

     iteration #  3     ecut=    45.00 Ry     beta= 0.70
     Davidson diagonalization with overlap
     ethr =  3.89E-04,  avg # of iterations =  2.0

     total cpu time spent up to now is       25.2 secs

     total energy              =    -845.45730097 Ry
     Harris-Foulkes estimate   =    -845.54508593 Ry
     estimated scf accuracy    <       0.22047856 Ry

     iteration #  4     ecut=    45.00 Ry     beta= 0.70
     Davidson diagonalization with overlap
     ethr =  1.02E-04,  avg # of iterations =  3.6

     total cpu time spent up to now is       33.2 secs

     total energy              =    -845.49977472 Ry
     Harris-Foulkes estimate   =    -845.55938990 Ry
     estimated scf accuracy    <       0.19448035 Ry

     iteration #  5     ecut=    45.00 Ry     beta= 0.70
     Davidson diagonalization with overlap
     ethr =  9.00E-05,  avg # of iterations =  2.6

     total cpu time spent up to now is       39.5 secs

     total energy              =    -845.52894691 Ry
     Harris-Foulkes estimate   =    -845.53003872 Ry
     estimated scf accuracy    <       0.00662328 Ry

     iteration #  6     ecut=    45.00 Ry     beta= 0.70
     Davidson diagonalization with overlap
     ethr =  3.07E-06,  avg # of iterations =  8.6

     total cpu time spent up to now is       53.3 secs

     total energy              =    -845.52920885 Ry
     Harris-Foulkes estimate   =    -845.53234001 Ry
     estimated scf accuracy    <       0.01544394 Ry

     iteration #  7     ecut=    45.00 Ry     beta= 0.70
     Davidson diagonalization with overlap
     ethr =  3.07E-06,  avg # of iterations =  2.2

     total cpu time spent up to now is       59.4 secs

     total energy              =    -845.52961728 Ry
     Harris-Foulkes estimate   =    -845.53000114 Ry
     estimated scf accuracy    <       0.00269851 Ry

     iteration #  8     ecut=    45.00 Ry     beta= 0.70
     Davidson diagonalization with overlap
     ethr =  1.25E-06,  avg # of iterations =  3.0

     total cpu time spent up to now is       65.7 secs

     total energy              =    -845.52957726 Ry
     Harris-Foulkes estimate   =    -845.52979676 Ry
     estimated scf accuracy    <       0.00108432 Ry

     iteration #  9     ecut=    45.00 Ry     beta= 0.70
     Davidson diagonalization with overlap
     ethr =  5.02E-07,  avg # of iterations =  4.8

     total cpu time spent up to now is       74.6 secs

     total energy              =    -845.52972478 Ry
     Harris-Foulkes estimate   =    -845.52974630 Ry
     estimated scf accuracy    <       0.00006587 Ry

     iteration # 10     ecut=    45.00 Ry     beta= 0.70
     Davidson diagonalization with overlap
     ethr =  3.05E-08,  avg # of iterations =  4.0

     total cpu time spent up to now is       83.6 secs

     total energy              =    -845.52973889 Ry
     Harris-Foulkes estimate   =    -845.52976916 Ry
     estimated scf accuracy    <       0.00026173 Ry

     iteration # 11     ecut=    45.00 Ry     beta= 0.70
     Davidson diagonalization with overlap
     ethr =  3.05E-08,  avg # of iterations =  2.0

     total cpu time spent up to now is       89.4 secs

     total energy              =    -845.52970828 Ry
     Harris-Foulkes estimate   =    -845.52974405 Ry
     estimated scf accuracy    <       0.00011695 Ry

     iteration # 12     ecut=    45.00 Ry     beta= 0.70
     Davidson diagonalization with overlap
     ethr =  3.05E-08,  avg # of iterations =  3.0

     total cpu time spent up to now is       96.9 secs

     total energy              =    -845.52972917 Ry
     Harris-Foulkes estimate   =    -845.52973419 Ry
     estimated scf accuracy    <       0.00002313 Ry

     iteration # 13     ecut=    45.00 Ry     beta= 0.70
     Davidson diagonalization with overlap
     ethr =  1.07E-08,  avg # of iterations =  2.0

     total cpu time spent up to now is      102.8 secs

     total energy              =    -845.52973110 Ry
     Harris-Foulkes estimate   =    -845.52973138 Ry
     estimated scf accuracy    <       0.00000281 Ry

     iteration # 14     ecut=    45.00 Ry     beta= 0.70
     Davidson diagonalization with overlap
     ethr =  1.30E-09,  avg # of iterations =  3.8

     total cpu time spent up to now is      110.1 secs

     total energy              =    -845.52973154 Ry
     Harris-Foulkes estimate   =    -845.52973166 Ry
     estimated scf accuracy    <       0.00000174 Ry

     iteration # 15     ecut=    45.00 Ry     beta= 0.70
     Davidson diagonalization with overlap
     ethr =  8.04E-10,  avg # of iterations =  1.0

     total cpu time spent up to now is      115.4 secs

     End of self-consistent calculation

          k = 0.0000 0.0000 0.0000 ( 31713 PWs)   bands (ev):

   -10.1095 -10.0974 -10.0909  -8.9234  -8.9203  -8.9139  -8.3975  -8.3823
    -8.3730  -8.3619  -8.3530  -8.3404  -8.3336  -8.3264  -8.2997  -8.1447
    -8.1271  -8.1186  -8.1061  -8.1028  -8.0973  -8.0655  -8.0563  -8.0409
    -1.7628  -1.7414  -1.7409  -1.7380  -1.7283  -1.7270  -1.7252  -1.7197
    -1.7133  -1.6006  -1.5811  -1.5461  -0.8357  -0.8188  -0.8082  -0.7947
    -0.7936  -0.7889  -0.7837  -0.7788  -0.7767  -0.1408  -0.1194  -0.1124
    -0.1037  -0.1001  -0.0973  -0.0792  -0.0773  -0.0590   0.7525   0.7866
     0.7872   0.7977   0.7993   0.8091   0.8508   0.8518   0.8596   1.2830
     1.3009   1.3051   1.3430   1.3698   1.3765   1.9140   1.9420   1.9596
     1.9849   1.9931   1.9967   2.0531   2.0780   2.1045   2.1597   2.2303
     2.3203   2.4154   2.4339   2.4473   2.4663   2.4728   2.4755   2.8912
     2.9026   2.9194   2.9275   2.9414   3.0084   3.0151   3.0289   3.0471
     3.2053   3.2123   3.2199   3.2408   3.2482   3.2531   3.2584   3.2619
     3.2815   3.7574   3.8525   3.9057   5.8649   5.8674   5.8757   5.9148
     5.9240   5.9300   5.9359   5.9507   5.9609   6.4135   6.4152   6.4206
     6.4259   6.4287   6.4357   6.4402   6.4463   6.4508   6.5457   6.5669
     6.5728   6.5999

          k = 0.0000 0.3861 0.0576 ( 31778 PWs)   bands (ev):

    -9.7425  -9.7306  -9.7242  -8.8804  -8.8731  -8.8693  -8.7448  -8.7425
    -8.7334  -8.4186  -8.4017  -8.3877  -8.3606  -8.3543  -8.3508  -8.3366
    -8.3289  -8.3240  -8.1300  -8.1094  -8.0873  -8.0759  -8.0601  -8.0463
    -1.3155  -1.2925  -1.2763  -1.2669  -1.2565  -1.2548  -1.2266  -1.2068
    -1.1871  -1.1754  -1.1588  -1.1364  -0.8865  -0.8569  -0.8498  -0.8442
    -0.8428  -0.8374  -0.1815  -0.1773  -0.1621   0.0374   0.0435   0.0550
     0.0793   0.1103   0.1185   0.1329   0.1543   0.1581   0.6015   0.6168
     0.6233   0.7124   0.7278   0.7545   0.7598   0.7794   0.7807   1.0728
     1.0913   1.1055   1.1120   1.1194   1.1431   1.5441   1.5521   1.5695
     1.6002   1.6103   1.6305   1.7061   1.7301   1.7452   1.8936   1.8950
     1.9061   2.1046   2.1217   2.1457   2.1660   2.1738   2.1806   2.2862
     2.3094   2.3265   2.5467   2.5648   2.5717   2.7817   2.8327   2.8846
     2.9184   2.9223   2.9346   3.3203   3.3376   3.3898   3.4300   3.4715
     3.4877   3.5335   3.5686   3.5928   5.8389   5.8663   5.8746   5.9030
     5.9494   5.9527   5.9731   5.9786   5.9864   6.0092   6.0372   6.0787
     6.1099   6.1389   6.1813   6.3022   6.3134   6.3228   6.3482   6.3798
     6.4117   6.4393

          k = 0.3333 0.1948 0.0416 ( 31769 PWs)   bands (ev):

    -9.7425  -9.7300  -9.7235  -8.8863  -8.8712  -8.8655  -8.7449  -8.7425
    -8.7365  -8.3971  -8.3886  -8.3850  -8.3741  -8.3673  -8.3632  -8.3376
    -8.3289  -8.3234  -8.1251  -8.1111  -8.0878  -8.0714  -8.0549  -8.0543
    -1.3127  -1.2917  -1.2760  -1.2682  -1.2638  -1.2560  -1.2083  -1.2039
    -1.1840  -1.1796  -1.1701  -1.1364  -0.8718  -0.8714  -0.8559  -0.8473
    -0.8449  -0.8366  -0.1826  -0.1760  -0.1605   0.0266   0.0392   0.0651
     0.0990   0.1059   0.1168   0.1429   0.1464   0.1499   0.5981   0.6221
     0.6269   0.7184   0.7333   0.7504   0.7658   0.7699   0.7839   1.0645
     1.0793   1.1122   1.1177   1.1264   1.1346   1.5401   1.5542   1.5685
     1.6040   1.6122   1.6206   1.7205   1.7302   1.7400   1.8722   1.9101
     1.9163   2.1034   2.1142   2.1276   2.1728   2.1860   2.1956   2.2744
     2.3057   2.3323   2.5527   2.5644   2.5684   2.7779   2.8338   2.8856
     2.9070   2.9296   2.9361   3.3059   3.3105   3.3842   3.4383   3.4891
     3.5101   3.5283   3.5701   3.5914   5.8371   5.8404   5.8793   5.9136
     5.9397   5.9513   5.9725   5.9795   5.9908   6.0050   6.0398   6.0754
     6.1064   6.1578   6.1867   6.2808   6.2953   6.3328   6.3755   6.3941
     6.4169   6.4480

          k = 0.3333 0.5809 0.0992 ( 31860 PWs)   bands (ev):

    -9.1583  -9.1373  -9.1325  -9.1283  -9.1147  -9.1076  -9.0912  -9.0878
    -9.0810  -8.4784  -8.4673  -8.4599  -8.4586  -8.4483  -8.4359  -8.4221
    -8.4104  -8.4030  -8.1180  -8.1058  -8.1007  -7.9323  -7.9278  -7.9261
    -1.3593  -1.3434  -1.3385  -0.9476  -0.9179  -0.9063  -0.9022  -0.8910
    -0.8835  -0.8695  -0.8672  -0.8543  -0.5725  -0.5659  -0.5628  -0.0815
    -0.0732  -0.0694   0.0691   0.0798   0.0860   0.1225   0.1258   0.1417
     0.1577   0.1824   0.1947   0.3188   0.3209   0.3349   0.3395   0.3546
     0.3562   0.3633   0.3733   0.3787   0.3800   0.3890   0.4024   0.7343
     0.7455   0.7499   0.7861   0.7885   0.7974   0.8397   0.8492   0.8683
     1.0402   1.0439   1.0459   1.7193   1.7342   1.7424   1.9208   1.9236
     1.9241   1.9345   1.9680   1.9932   2.0487   2.0543   2.0618   2.7457
     2.7624   2.7793   2.8146   2.8254   2.8350   2.8545   2.8573   2.8935
     3.0482   3.0567   3.0655   3.0861   3.0958   3.1013   3.1201   3.1209
     3.1382   3.8553   3.8574   3.8593   5.4468   5.4586   5.4707   5.6298
     5.6502   5.6664   5.6793   5.7074   5.7320   5.7534   5.7856   5.7977
     6.1527   6.1582   6.1707   6.1949   6.2021   6.2123   6.2477   6.2672
     6.2823   6.3795

          k = 0.3333-0.1912-0.0161 ( 31807 PWs)   bands (ev):

    -9.7465  -9.7347  -9.7289  -8.8992  -8.8882  -8.8828  -8.7483  -8.7468
    -8.7391  -8.3914  -8.3817  -8.3719  -8.3698  -8.3563  -8.3524  -8.3461
    -8.3402  -8.3197  -8.1101  -8.0974  -8.0870  -8.0559  -8.0497  -8.0435
    -1.3168  -1.2984  -1.2934  -1.2816  -1.2753  -1.2636  -1.2145  -1.2098
    -1.1926  -1.1811  -1.1761  -1.1398  -0.8867  -0.8669  -0.8631  -0.8620
    -0.8548  -0.8415  -0.1847  -0.1804  -0.1662   0.0094   0.0164   0.0306
     0.1048   0.1166   0.1255   0.1382   0.1483   0.1539   0.5694   0.5864
     0.5932   0.7065   0.7155   0.7246   0.7403   0.7482   0.7567   1.0634
     1.0819   1.1252   1.1523   1.1617   1.1721   1.5449   1.5672   1.5773
     1.6105   1.6215   1.6367   1.7547   1.7695   1.7786   1.9294   1.9307
     1.9427   2.0997   2.1428   2.1507   2.1638   2.1902   2.2386   2.2500
     2.2999   2.3152   2.5978   2.6061   2.6181   2.7718   2.8152   2.8760
     2.9019   2.9086   2.9288   3.2710   3.3033   3.3405   3.4330   3.4617
     3.5038   3.5220   3.5604   3.5816   5.8460   5.8572   5.8887   5.9251
     5.9382   5.9502   5.9723   5.9854   5.9935   6.0160   6.0343   6.0434
     6.1135   6.1657   6.1732   6.3089   6.3328   6.3482   6.3841   6.4047
     6.4228   6.4518

     the Fermi energy is     3.9465 ev

!    total energy              =    -845.52973083 Ry
     Harris-Foulkes estimate   =    -845.52973159 Ry
     estimated scf accuracy    <       0.00000080 Ry

     The total energy is the sum of the following terms:

     one-electron contribution =    -732.61781018 Ry
     hartree contribution      =     470.31190052 Ry
     xc contribution           =    -334.08591992 Ry
     ewald contribution        =    -249.16328295 Ry
     smearing contrib. (-TS)   =       0.02538168 Ry

     convergence has been achieved in  15 iterations

     Forces acting on atoms (cartesian axes, Ry/au):

     atom    1 type  1   force =    -0.00576264    0.00895931    0.01350632
     atom    2 type  1   force =    -0.00279133    0.01642306    0.00214514
     atom    3 type  1   force =    -0.02403298   -0.01630714   -0.00542031
     atom    4 type  1   force =     0.02638037   -0.02130497    0.00186805
     atom    5 type  1   force =    -0.00818115    0.00279514   -0.00875573
     atom    6 type  1   force =     0.01242973   -0.00478143    0.00077304
     atom    7 type  1   force =     0.01460960   -0.01096993   -0.00794248
     atom    8 type  1   force =    -0.00176373    0.01017678   -0.00117876
     atom    9 type  1   force =     0.01441254   -0.00328974   -0.00488206
     atom   10 type  1   force =    -0.01605137   -0.01097253    0.00622399
     atom   11 type  1   force =     0.01294599    0.02276113    0.00325610
     atom   12 type  1   force =    -0.00177398   -0.00106891    0.01215809
     atom   13 type  2   force =    -0.00531192   -0.00349530   -0.00292542
     atom   14 type  2   force =    -0.00317875   -0.00538414   -0.00273666
     atom   15 type  2   force =    -0.00222679   -0.00568897    0.00573658
     atom   16 type  2   force =    -0.00318852   -0.00598769    0.00221078
     atom   17 type  2   force =     0.00575632   -0.00768627   -0.00944424
     atom   18 type  2   force =     0.00436711   -0.00979462   -0.00098335
     atom   19 type  2   force =     0.00557553   -0.00179977   -0.00018263
     atom   20 type  2   force =     0.00466781   -0.00292544    0.00387164
     atom   21 type  2   force =    -0.00435336    0.00791343    0.00266091
     atom   22 type  2   force =    -0.00205201    0.00629929    0.00331968
     atom   23 type  2   force =    -0.00392212    0.00768721   -0.00580458
     atom   24 type  2   force =    -0.00351198    0.01220096   -0.00754907
     atom   25 type  2   force =    -0.00366200    0.00854282   -0.01387914
     atom   26 type  2   force =    -0.00478208    0.01022084    0.00161667
     atom   27 type  2   force =    -0.00694325    0.00631574    0.01023019
     atom   28 type  2   force =    -0.00808137    0.00432257   -0.00224513
     atom   29 type  2   force =    -0.00095490   -0.00901895    0.01381403
     atom   30 type  2   force =     0.00414303   -0.00663863   -0.00033309
     atom   31 type  2   force =     0.00012937   -0.00513659    0.00330516
     atom   32 type  2   force =     0.00288390   -0.00570639    0.00871425
     atom   33 type  2   force =    -0.00265377    0.00004188   -0.00837761
     atom   34 type  2   force =     0.00203717    0.00559649    0.00742817
     atom   35 type  2   force =     0.00021188    0.00163939   -0.01046983
     atom   36 type  2   force =     0.00462965    0.00606136   -0.00972868

     Total force =     0.087305     Total SCF correction =     0.001899
 
     init_run     :      4.33s CPU      4.59s WALL (       1 calls)
     electrons    :    107.19s CPU    109.91s WALL (       1 calls)
     forces       :      2.55s CPU      2.61s WALL (       1 calls)

     Called by init_run:
     wfcinit      :      2.48s CPU      2.60s WALL (       1 calls)
     potinit      :      0.48s CPU      0.49s WALL (       1 calls)
     hinit0       :      0.63s CPU      0.68s WALL (       1 calls)

     Called by electrons:
     c_bands      :     83.46s CPU     84.41s WALL (      15 calls)
     sum_band     :     16.89s CPU     18.11s WALL (      15 calls)
     v_of_rho     :      1.23s CPU      1.28s WALL (      16 calls)
     newd         :      4.25s CPU      4.71s WALL (      16 calls)
     mix_rho      :      1.50s CPU      1.57s WALL (      15 calls)

     Called by c_bands:
     init_us_2    :      1.80s CPU      1.80s WALL (     160 calls)
     cegterg      :     77.98s CPU     78.89s WALL (      75 calls)

     Called by sum_band:
     sum_band:bec :      0.13s CPU      0.13s WALL (      75 calls)
     addusdens    :      6.73s CPU      7.75s WALL (      15 calls)

     Called by *egterg:
     h_psi        :     41.34s CPU     41.97s WALL (     317 calls)
     s_psi        :      7.90s CPU      7.91s WALL (     317 calls)
     g_psi        :      0.21s CPU      0.22s WALL (     237 calls)
     cdiaghg      :     15.15s CPU     15.43s WALL (     312 calls)

     Called by h_psi:
     h_psi:pot    :     40.92s CPU     41.54s WALL (     317 calls)
     h_psi:calbec :      8.76s CPU      8.96s WALL (     317 calls)
     vloc_psi     :     24.14s CPU     24.55s WALL (     317 calls)
     add_vuspsi   :      8.01s CPU      8.02s WALL (     317 calls)

     General routines
     calbec       :     12.87s CPU     13.15s WALL (     412 calls)
     fft          :      1.03s CPU      1.12s WALL (     217 calls)
     ffts         :      0.64s CPU      0.70s WALL (     595 calls)
     fftw         :     27.39s CPU     27.85s WALL (   60418 calls)
     interpolate  :      0.11s CPU      0.12s WALL (      16 calls)
 
     Parallel routines
     fft_scatt_xy :      2.97s CPU      3.03s WALL (   61230 calls)
     fft_scatt_yz :     13.47s CPU     13.77s WALL (   61230 calls)
 
     PWSCF        :   1m54.86s CPU   1m58.08s WALL

 
   This run was terminated on:  10:48: 6  14Oct2021            

=------------------------------------------------------------------------------=
   JOB DONE.
=------------------------------------------------------------------------------=
