
     Program PWSCF v.6.4 starts on 25Dec2021 at  0:11:35 

     This program is part of the open-source Quantum ESPRESSO suite
     for quantum simulation of materials; please cite
         "P. Giannozzi et al., J. Phys.:Condens. Matter 21 395502 (2009);
         "P. Giannozzi et al., J. Phys.:Condens. Matter 29 465901 (2017);
          URL http://www.quantum-espresso.org", 
     in publications or presentations arising from this work. More details at
     http://www.quantum-espresso.org/quote

     Parallel version (MPI), running on    40 processors

     MPI processes distributed on     1 nodes
     R & G space division:  proc/nbgrp/npool/nimage =      40
     Waiting for input...
     Reading input from standard input
Warning: card    &IONS ignored
Warning: card      ION_DYNAMICS = 'BFGS' ignored
Warning: card   / ignored
Warning: card    &CELL ignored
Warning: card      CELL_DYNAMICS = 'BFGS', ignored
Warning: card    / ignored

     Current dimensions of program PWSCF are:
     Max number of different atomic species (ntypx) = 10
     Max number of k-points (npk) =  40000
     Max angular momentum in pseudopotentials (lmaxx) =  3

     Subspace diagonalization in iterative solution of the eigenvalue problem:
     one sub-group per band group will be used
     scalapack distributed-memory algorithm (size of sub-group:  4*  4 procs)

 
     Parallelization info
     --------------------
     sticks:   dense  smooth     PW     G-vecs:    dense   smooth      PW
     Min          91      45     12                15551     5491     792
     Max          92      46     13                15574     5510     811
     Sum        3667    1813    511               622293   219865   32105
 


     bravais-lattice index     =            0
     lattice parameter (alat)  =      12.1536  a.u.
     unit-cell volume          =    5394.2596 (a.u.)^3
     number of atoms/cell      =           36
     number of atomic types    =            2
     number of electrons       =       216.00
     number of Kohn-Sham states=          130
     kinetic-energy cutoff     =      45.0000  Ry
     charge density cutoff     =     360.0000  Ry
     convergence threshold     =      1.0E-06
     mixing beta               =       0.7000
     number of iterations used =            8  local-TF  mixing
     Exchange-correlation      = SLA PW GGX GGC ( 1  4  2  2 0 0)

     celldm(1)=  12.153560  celldm(2)=   0.000000  celldm(3)=   0.000000
     celldm(4)=   0.000000  celldm(5)=   0.000000  celldm(6)=   0.000000

     crystal axes: (cart. coord. in units of alat)
               a(1) = (   1.000000   0.000000   0.000000 )  
               a(2) = (  -0.500000   0.866026   0.000000 )  
               a(3) = (   0.000000   0.000000   3.469690 )  

     reciprocal axes: (cart. coord. in units 2 pi/alat)
               b(1) = (  1.000000  0.577350  0.000000 )  
               b(2) = (  0.000000  1.154700  0.000000 )  
               b(3) = (  0.000000  0.000000  0.288210 )  


     PseudoPot. # 1 for Mo read from file:
     ~/pseudo/Mo.pw91-n-van.UPF
     MD5 check sum: Not computed, couldn't open file
     Pseudo is Ultrasoft + core correction, Zval =  6.0
     Generated by new atomic code, or converted to UPF format
     Using radial grid of  965 points,  3 beta functions with: 
                l(1) =   1
                l(2) =   2
                l(3) =   2
     Q(r) pseudized with  8 coefficients,  rinner =    1.000   1.000   1.000
                                                       1.200   1.200

     PseudoPot. # 2 for S  read from file:
     ~/pseudo/S.pw91-van_ak.UPF
     MD5 check sum: Not computed, couldn't open file
     Pseudo is Ultrasoft, Zval =  6.0
     Generated by new atomic code, or converted to UPF format
     Using radial grid of  811 points,  6 beta functions with: 
                l(1) =   0
                l(2) =   0
                l(3) =   1
                l(4) =   1
                l(5) =   2
                l(6) =   2
     Q(r) pseudized with  8 coefficients,  rinner =    1.100   1.100   1.100
                                                       1.100   1.100

     atomic species   valence    mass     pseudopotential
        Mo             6.00    95.50000     Mo( 1.00)
        S              6.00    32.06500     S ( 1.00)

     No symmetry found



   Cartesian axes

     site n.     atom                  positions (alat units)
         1           Mo  tau(   1) = (   0.2791585   0.6921671   1.5988079  )
         2           Mo  tau(   2) = (   0.5692264  -0.0321293   2.9920558  )
         3           Mo  tau(   3) = (   0.3663412   0.6508774   0.3234524  )
         4           Mo  tau(   4) = (   0.5393053   0.2664661   1.6137168  )
         5           Mo  tau(   5) = (   0.8193245   0.4107592   2.9873659  )
         6           Mo  tau(   6) = (   0.6179337   0.2103676   0.3404712  )
         7           Mo  tau(   7) = (   1.0756350  -0.0414601   2.9781156  )
         8           Mo  tau(   8) = (   0.0339303   0.2769553   1.6059783  )
         9           Mo  tau(   9) = (  -0.2099517   0.6872179   1.6023528  )
        10           Mo  tau(  10) = (   0.3154804   0.4098081   2.9711441  )
        11           Mo  tau(  11) = (   0.1144628   0.2155936   0.3388260  )
        12           Mo  tau(  12) = (  -0.1206921   0.6493440   0.3439470  )
        13           S   tau(  13) = (   0.3166405   0.6798454   2.7416328  )
        14           S   tau(  14) = (   0.3230110   0.6827243   3.2339803  )
        15           S   tau(  15) = (   0.3843956   0.0771756   0.0803642  )
        16           S   tau(  16) = (   0.3812524   0.0806652   0.5711050  )
        17           S   tau(  17) = (   0.5465203   0.5644612   1.3589673  )
        18           S   tau(  18) = (   0.5313874   0.5486270   1.8542776  )
        19           S   tau(  19) = (   0.5746926   0.2641049   2.7269244  )
        20           S   tau(  20) = (   0.5685989   0.2572410   3.2127384  )
        21           S   tau(  21) = (   0.6142859   0.5003145   0.0908281  )
        22           S   tau(  22) = (   0.6299458   0.4993569   0.5875115  )
        23           S   tau(  23) = (   0.7919747   0.1168974   1.3449169  )
        24           S   tau(  24) = (   0.7942556   0.1176829   1.8570778  )
        25           S   tau(  25) = (   0.8792039   0.0746854   0.0982303  )
        26           S   tau(  26) = (   0.8738830   0.0739586   0.5654376  )
        27           S   tau(  27) = (   0.0692520   0.2535812   2.7461490  )
        28           S   tau(  28) = (   0.0718183   0.2630813   3.2350630  )
        29           S   tau(  29) = (  -0.1848205   0.6787364   2.7393459  )
        30           S   tau(  30) = (  -0.1805903   0.7014625   3.2290305  )
        31           S   tau(  31) = (   0.1209003   0.4955905   0.0800195  )
        32           S   tau(  32) = (   0.1204862   0.5122081   0.5684776  )
        33           S   tau(  33) = (   0.2889286   0.1222986   1.3681644  )
        34           S   tau(  34) = (   0.2975810   0.1218101   1.8556809  )
        35           S   tau(  35) = (   0.0407330   0.5612470   1.3664422  )
        36           S   tau(  36) = (   0.0296291   0.5540779   1.8550900  )

     number of k points=     5  Marzari-Vanderbilt smearing, width (Ry)=  0.0200
                       cart. coord. in units 2pi/alat
        k(    1) = (   0.0000000   0.0000000   0.0000000), wk =   0.2222222
        k(    2) = (   0.0000000   0.3849001   0.0000000), wk =   0.4444444
        k(    3) = (   0.3333333   0.5773502   0.0000000), wk =   0.4444444
        k(    4) = (  -0.3333333   0.1924501   0.0000000), wk =   0.4444444
        k(    5) = (   0.3333333   0.1924501   0.0000000), wk =   0.4444444

     Dense  grid:   622293 G-vectors     FFT dimensions: (  75,  75, 256)

     Smooth grid:   219865 G-vectors     FFT dimensions: (  54,  54, 192)

     Estimated max dynamical RAM per process >      99.39 MB

     Estimated total dynamical RAM >       3.88 GB

     Initial potential from superposition of free atoms

     starting charge  215.98107, renormalised to  216.00000
     Starting wfcs are  204 randomized atomic wfcs

     total cpu time spent up to now is        4.5 secs

     Self-consistent Calculation

     iteration #  1     ecut=    45.00 Ry     beta= 0.70
     Davidson diagonalization with overlap
     ethr =  1.00E-02,  avg # of iterations =  2.0

     total cpu time spent up to now is       10.8 secs

     total energy              =    -843.98172970 Ry
     Harris-Foulkes estimate   =    -846.46142058 Ry
     estimated scf accuracy    <       6.31114674 Ry

     iteration #  2     ecut=    45.00 Ry     beta= 0.70
     Davidson diagonalization with overlap
     ethr =  2.92E-03,  avg # of iterations =  2.0

     total cpu time spent up to now is       16.4 secs

     total energy              =    -845.14501441 Ry
     Harris-Foulkes estimate   =    -845.32502223 Ry
     estimated scf accuracy    <       0.91837642 Ry

     iteration #  3     ecut=    45.00 Ry     beta= 0.70
     Davidson diagonalization with overlap
     ethr =  4.25E-04,  avg # of iterations =  2.0

     total cpu time spent up to now is       21.4 secs

     total energy              =    -845.15689778 Ry
     Harris-Foulkes estimate   =    -845.22215990 Ry
     estimated scf accuracy    <       0.19621702 Ry

     iteration #  4     ecut=    45.00 Ry     beta= 0.70
     Davidson diagonalization with overlap
     ethr =  9.08E-05,  avg # of iterations =  6.8

     total cpu time spent up to now is       30.7 secs

     total energy              =    -845.20627196 Ry
     Harris-Foulkes estimate   =    -845.22959366 Ry
     estimated scf accuracy    <       0.11366467 Ry

     iteration #  5     ecut=    45.00 Ry     beta= 0.70
     Davidson diagonalization with overlap
     ethr =  5.26E-05,  avg # of iterations =  3.0

     total cpu time spent up to now is       36.0 secs

     total energy              =    -845.20434408 Ry
     Harris-Foulkes estimate   =    -845.21298375 Ry
     estimated scf accuracy    <       0.02144470 Ry

     iteration #  6     ecut=    45.00 Ry     beta= 0.70
     Davidson diagonalization with overlap
     ethr =  9.93E-06,  avg # of iterations =  7.4

     total cpu time spent up to now is       46.5 secs

     total energy              =    -845.21102682 Ry
     Harris-Foulkes estimate   =    -845.21562755 Ry
     estimated scf accuracy    <       0.02674075 Ry

     iteration #  7     ecut=    45.00 Ry     beta= 0.70
     Davidson diagonalization with overlap
     ethr =  9.93E-06,  avg # of iterations =  1.0

     total cpu time spent up to now is       51.1 secs

     total energy              =    -845.21109629 Ry
     Harris-Foulkes estimate   =    -845.21210407 Ry
     estimated scf accuracy    <       0.00665668 Ry

     iteration #  8     ecut=    45.00 Ry     beta= 0.70
     Davidson diagonalization with overlap
     ethr =  3.08E-06,  avg # of iterations =  3.4

     total cpu time spent up to now is       56.8 secs

     total energy              =    -845.21143736 Ry
     Harris-Foulkes estimate   =    -845.21165949 Ry
     estimated scf accuracy    <       0.00120176 Ry

     iteration #  9     ecut=    45.00 Ry     beta= 0.70
     Davidson diagonalization with overlap
     ethr =  5.56E-07,  avg # of iterations =  8.2

     total cpu time spent up to now is       66.1 secs

     total energy              =    -845.21177651 Ry
     Harris-Foulkes estimate   =    -845.21178717 Ry
     estimated scf accuracy    <       0.00031068 Ry

     iteration # 10     ecut=    45.00 Ry     beta= 0.70
     Davidson diagonalization with overlap
     ethr =  1.44E-07,  avg # of iterations =  1.2

     total cpu time spent up to now is       70.8 secs

     total energy              =    -845.21177301 Ry
     Harris-Foulkes estimate   =    -845.21178346 Ry
     estimated scf accuracy    <       0.00023784 Ry

     iteration # 11     ecut=    45.00 Ry     beta= 0.70
     Davidson diagonalization with overlap
     ethr =  1.10E-07,  avg # of iterations =  3.0

     total cpu time spent up to now is       76.2 secs

     total energy              =    -845.21175803 Ry
     Harris-Foulkes estimate   =    -845.21178625 Ry
     estimated scf accuracy    <       0.00022191 Ry

     iteration # 12     ecut=    45.00 Ry     beta= 0.70
     Davidson diagonalization with overlap
     ethr =  1.03E-07,  avg # of iterations =  1.0

     total cpu time spent up to now is       80.7 secs

     total energy              =    -845.21173418 Ry
     Harris-Foulkes estimate   =    -845.21176342 Ry
     estimated scf accuracy    <       0.00012364 Ry

     iteration # 13     ecut=    45.00 Ry     beta= 0.70
     Davidson diagonalization with overlap
     ethr =  5.72E-08,  avg # of iterations =  3.0

     total cpu time spent up to now is       86.2 secs

     total energy              =    -845.21173876 Ry
     Harris-Foulkes estimate   =    -845.21174869 Ry
     estimated scf accuracy    <       0.00005190 Ry

     iteration # 14     ecut=    45.00 Ry     beta= 0.70
     Davidson diagonalization with overlap
     ethr =  2.40E-08,  avg # of iterations =  5.0

     total cpu time spent up to now is       92.3 secs

     total energy              =    -845.21174097 Ry
     Harris-Foulkes estimate   =    -845.21174453 Ry
     estimated scf accuracy    <       0.00001687 Ry

     iteration # 15     ecut=    45.00 Ry     beta= 0.70
     Davidson diagonalization with overlap
     c_bands:  1 eigenvalues not converged
     ethr =  7.81E-09,  avg # of iterations =  5.8

     total cpu time spent up to now is       98.6 secs

     total energy              =    -845.21174125 Ry
     Harris-Foulkes estimate   =    -845.21174264 Ry
     estimated scf accuracy    <       0.00000472 Ry

     iteration # 16     ecut=    45.00 Ry     beta= 0.70
     Davidson diagonalization with overlap
     ethr =  2.18E-09,  avg # of iterations =  7.0

     total cpu time spent up to now is      106.7 secs

     total energy              =    -845.21174203 Ry
     Harris-Foulkes estimate   =    -845.21174249 Ry
     estimated scf accuracy    <       0.00000203 Ry

     iteration # 17     ecut=    45.00 Ry     beta= 0.70
     Davidson diagonalization with overlap
     ethr =  9.42E-10,  avg # of iterations =  2.0

     total cpu time spent up to now is      111.6 secs

     End of self-consistent calculation

          k = 0.0000 0.0000 0.0000 ( 27457 PWs)   bands (ev):

    -9.5435  -8.5279  -8.4227  -7.9332  -7.7972  -7.4333  -7.2794  -7.2362
    -7.1727  -7.0104  -7.0049  -6.9553  -6.8895  -6.8484  -6.8158  -6.6971
    -6.6438  -6.6212  -6.5984  -6.5377  -6.5067  -6.3528  -6.3407  -6.2496
    -1.0134  -0.9643  -0.9349  -0.8987  -0.7143  -0.6397  -0.3614  -0.0927
    -0.0655  -0.0111   0.0284   0.1255   0.2033   0.3817   0.4414   0.4864
     0.5335   0.7325   0.7910   0.8386   0.9766   1.0701   1.2285   1.4619
     1.4961   1.5002   1.5886   1.6286   1.6846   1.8039   1.8584   1.9351
     2.0517   2.1425   2.2032   2.3037   2.3570   2.4247   2.5869   2.6400
     2.6581   2.7358   2.8322   2.8464   2.9293   3.0350   3.0628   3.3649
     3.4304   3.4650   3.4878   3.6477   3.6982   3.7081   3.7305   3.8325
     3.8545   3.8704   3.8930   4.0289   4.0867   4.1057   4.1577   4.2436
     4.2668   4.4182   4.4420   4.5331   4.6282   4.6469   4.7050   4.7667
     4.7702   4.7917   4.8361   4.8448   4.8856   4.9715   4.9781   5.0467
     5.1271   5.3698   5.5224   6.6586   7.1048   7.2261   7.2702   7.2912
     7.3521   7.3833   7.4402   7.4924   7.5230   7.6165   7.6941   7.7747
     7.8461   7.8711   7.9099   7.9260   7.9793   8.0263   8.0490   8.0634
     8.0785   8.1423

          k = 0.0000 0.3849 0.0000 ( 27482 PWs)   bands (ev):

    -9.1694  -8.2542  -8.1447  -8.0769  -7.7553  -7.7205  -7.5652  -7.3649
    -7.2220  -7.1245  -7.0861  -7.0323  -6.9202  -6.8697  -6.8048  -6.7883
    -6.6742  -6.6700  -6.6322  -6.5572  -6.5441  -6.4853  -6.3572  -6.2426
    -0.6903  -0.5684  -0.5121  -0.4832  -0.2079  -0.0652   0.0949   0.2319
     0.3130   0.3251   0.3279   0.3886   0.5014   0.5952   0.6446   0.7398
     0.7963   0.8080   0.8834   0.8893   0.9799   1.2619   1.4735   1.5310
     1.6344   1.6512   1.6977   1.7369   1.7896   1.8193   1.8750   1.9226
     1.9642   2.0600   2.1674   2.2521   2.2590   2.3372   2.3602   2.3943
     2.4956   2.5204   2.5906   2.6959   2.7156   2.8141   2.8322   2.9880
     3.0676   3.1302   3.1808   3.2111   3.3245   3.3376   3.3798   3.4661
     3.5829   3.6218   3.7053   3.7261   3.7833   3.8372   3.8769   3.9419
     4.0104   4.0632   4.1026   4.1838   4.2347   4.3186   4.4359   4.4585
     4.5493   4.6928   4.7324   4.7537   4.8129   4.8886   5.0049   5.1414
     5.1749   5.2263   5.2842   5.3604   7.0968   7.1618   7.2695   7.3158
     7.3515   7.3924   7.4195   7.4716   7.5285   7.5629   7.5756   7.6505
     7.7175   7.7447   7.7937   7.8475   7.8805   7.9263   7.9548   7.9941
     8.0336   8.0467

          k = 0.3333 0.5774 0.0000 ( 27519 PWs)   bands (ev):

    -8.6568  -8.5112  -8.4084  -7.6784  -7.6366  -7.6093  -7.5370  -7.4037
    -7.3472  -7.2760  -7.2549  -7.2156  -7.1325  -6.9466  -6.7911  -6.7552
    -6.7410  -6.6676  -6.6515  -6.5923  -6.5400  -6.4318  -6.3767  -6.2073
    -0.4295  -0.3883  -0.3463  -0.2966  -0.2213   0.0921   0.3358   0.5046
     0.5952   0.6081   0.6577   0.7140   0.7706   0.8950   0.9546   0.9904
     1.0823   1.1483   1.1650   1.2376   1.2544   1.3210   1.3674   1.4857
     1.5215   1.5762   1.5941   1.7160   1.7789   1.8121   1.8545   1.8621
     1.9222   1.9402   1.9530   2.0175   2.0342   2.0586   2.1212   2.1319
     2.1599   2.2762   2.4667   2.4785   2.5692   2.5740   2.6185   2.6387
     2.7001   2.7409   2.8359   3.0117   3.1217   3.2116   3.2546   3.3467
     3.3814   3.4184   3.5170   3.5480   3.7044   3.8556   3.8851   3.9719
     4.0422   4.1405   4.3733   4.4141   4.4298   4.4560   4.5254   4.5659
     4.6085   4.6447   4.6664   4.7035   4.7344   4.7854   4.7918   4.8657
     4.8882   5.3549   5.4961   5.6021   6.7693   6.8530   6.9080   6.9320
     7.0426   7.1605   7.2212   7.2656   7.2961   7.3916   7.4341   7.5220
     7.5740   7.6804   7.7351   7.7728   7.7841   7.8049   7.8128   7.8902
     7.9674   7.9775

          k =-0.3333 0.1925 0.0000 ( 27482 PWs)   bands (ev):

    -9.1975  -8.3776  -8.1452  -8.0677  -7.7046  -7.5179  -7.3631  -7.3499
    -7.2548  -7.1542  -7.1205  -7.1047  -6.9362  -6.8850  -6.8392  -6.7375
    -6.7078  -6.6699  -6.6059  -6.6028  -6.5694  -6.4708  -6.3764  -6.3318
    -0.6881  -0.6052  -0.5892  -0.4424  -0.3729  -0.2300   0.1861   0.2624
     0.3078   0.3687   0.4055   0.4993   0.5117   0.5305   0.5715   0.5915
     0.7995   0.8024   0.8713   1.1301   1.2324   1.3797   1.4665   1.5005
     1.5821   1.6510   1.7250   1.8080   1.8131   1.8800   1.8936   1.9574
     2.0555   2.1141   2.1501   2.1920   2.2033   2.2666   2.3254   2.3555
     2.4458   2.4745   2.6269   2.7325   2.8115   2.8747   2.8853   2.9965
     3.0511   3.1368   3.1959   3.2241   3.2357   3.3283   3.3593   3.3864
     3.4764   3.5321   3.5680   3.6411   3.7176   3.7651   3.8025   3.8973
     4.0092   4.0737   4.1266   4.1947   4.2593   4.3132   4.4654   4.4828
     4.6475   4.7066   4.8149   4.9030   4.9386   4.9874   5.0248   5.0739
     5.1548   5.1901   5.3410   5.6643   6.9908   7.0839   7.1476   7.2580
     7.2988   7.3486   7.4089   7.4484   7.4890   7.5483   7.5891   7.6190
     7.6986   7.7277   7.7602   7.7797   7.8793   7.9195   7.9314   7.9687
     8.0052   8.0698

          k = 0.3333 0.1925 0.0000 ( 27482 PWs)   bands (ev):

    -9.1736  -8.2422  -8.1525  -8.0670  -7.7875  -7.6800  -7.5571  -7.3557
    -7.2226  -7.1576  -7.0942  -7.0158  -6.9035  -6.8760  -6.8161  -6.7822
    -6.7013  -6.6752  -6.6417  -6.5658  -6.5351  -6.3857  -6.3814  -6.2874
    -0.6836  -0.5860  -0.5169  -0.4724  -0.2522   0.0064   0.0244   0.2079
     0.2982   0.3261   0.3519   0.4641   0.5267   0.5545   0.6009   0.7520
     0.7601   0.7704   0.7992   0.8741   1.0123   1.3278   1.4638   1.4899
     1.6010   1.6833   1.7121   1.7746   1.8300   1.8467   1.8904   1.9259
     1.9906   2.0597   2.1319   2.2357   2.2927   2.3205   2.3823   2.3942
     2.4779   2.4997   2.6216   2.7401   2.7833   2.8489   2.8704   2.9750
     3.0927   3.1592   3.1706   3.2308   3.2982   3.3018   3.3616   3.4881
     3.5218   3.6033   3.6606   3.7212   3.7732   3.8472   3.8917   3.9034
     3.9833   4.0353   4.1193   4.1856   4.2773   4.3173   4.3985   4.4160
     4.5519   4.5769   4.7575   4.8150   4.8944   4.9712   5.0476   5.1050
     5.1257   5.1426   5.2664   5.2919   7.0908   7.2000   7.2654   7.3689
     7.3894   7.4031   7.4355   7.5130   7.5401   7.5886   7.6194   7.6485
     7.7018   7.7253   7.8293   7.8359   7.8730   7.9205   7.9263   7.9940
     8.0668   8.0992

     the Fermi energy is     6.6486 ev

!    total energy              =    -845.21174193 Ry
     Harris-Foulkes estimate   =    -845.21174220 Ry
     estimated scf accuracy    <       0.00000030 Ry

     The total energy is the sum of the following terms:

     one-electron contribution =    -858.32911467 Ry
     hartree contribution      =     545.27719676 Ry
     xc contribution           =    -334.88470631 Ry
     ewald contribution        =    -197.27159351 Ry
     smearing contrib. (-TS)   =      -0.00352420 Ry

     convergence has been achieved in  17 iterations

     Forces acting on atoms (cartesian axes, Ry/au):

     atom    1 type  1   force =     0.07016615    0.05718157    0.06565609
     atom    2 type  1   force =     0.01583444   -0.00767241   -0.08947178
     atom    3 type  1   force =     0.03503420   -0.03378169    0.06326788
     atom    4 type  1   force =     0.02755719   -0.01408273   -0.05282725
     atom    5 type  1   force =     0.01676782   -0.05464447   -0.01473396
     atom    6 type  1   force =     0.04834854    0.06964880   -0.06826400
     atom    7 type  1   force =    -0.04921318    0.04827845    0.03891215
     atom    8 type  1   force =     0.02052127   -0.08339316    0.01051129
     atom    9 type  1   force =    -0.02662282    0.08607513    0.06355877
     atom   10 type  1   force =     0.02938359   -0.08105267    0.07811216
     atom   11 type  1   force =     0.09178325    0.02377320   -0.04862811
     atom   12 type  1   force =    -0.06611910    0.01587085   -0.09176676
     atom   13 type  2   force =    -0.00330954    0.06550477   -0.04642087
     atom   14 type  2   force =     0.00508238    0.01591279   -0.06908322
     atom   15 type  2   force =    -0.03835634   -0.01337228    0.08504971
     atom   16 type  2   force =    -0.05428970   -0.03216517    0.07024929
     atom   17 type  2   force =    -0.03250490   -0.04487025   -0.00787167
     atom   18 type  2   force =     0.00384073    0.01807989   -0.01136254
     atom   19 type  2   force =    -0.00564223   -0.01790434    0.03178930
     atom   20 type  2   force =    -0.00623447    0.02145730   -0.00193631
     atom   21 type  2   force =     0.02944351    0.01265048    0.05334813
     atom   22 type  2   force =    -0.02546605    0.01944266   -0.02013963
     atom   23 type  2   force =    -0.01340828    0.01735839    0.05136744
     atom   24 type  2   force =    -0.01153061   -0.00076110   -0.03244824
     atom   25 type  2   force =    -0.04057894    0.00424790   -0.01303284
     atom   26 type  2   force =    -0.01469259   -0.03400500    0.08091955
     atom   27 type  2   force =    -0.01717324   -0.00083138   -0.03208183
     atom   28 type  2   force =     0.00049442   -0.02777738   -0.09274323
     atom   29 type  2   force =     0.03298440    0.03502099   -0.02741915
     atom   30 type  2   force =     0.00091449   -0.03604757   -0.02321351
     atom   31 type  2   force =    -0.01665915    0.03192433    0.07379247
     atom   32 type  2   force =     0.03228424   -0.02401822    0.06399224
     atom   33 type  2   force =    -0.00077933    0.00415233   -0.00193581
     atom   34 type  2   force =    -0.03357728   -0.01105797   -0.01994444
     atom   35 type  2   force =    -0.02245379   -0.03168333   -0.07166119
     atom   36 type  2   force =     0.01817095    0.00254133    0.00645985

     Total force =     0.448340     Total SCF correction =     0.001213
 
     init_run     :      3.37s CPU      3.63s WALL (       1 calls)
     electrons    :    104.31s CPU    107.06s WALL (       1 calls)
     forces       :      1.93s CPU      2.01s WALL (       1 calls)

     Called by init_run:
     wfcinit      :      2.19s CPU      2.28s WALL (       1 calls)
     potinit      :      0.24s CPU      0.25s WALL (       1 calls)
     hinit0       :      0.37s CPU      0.44s WALL (       1 calls)

     Called by electrons:
     c_bands      :     82.78s CPU     83.93s WALL (      17 calls)
     sum_band     :     15.61s CPU     16.59s WALL (      17 calls)
     v_of_rho     :      1.05s CPU      1.12s WALL (      18 calls)
     newd         :      3.74s CPU      4.35s WALL (      18 calls)
     mix_rho      :      1.22s CPU      1.23s WALL (      17 calls)

     Called by c_bands:
     init_us_2    :      1.87s CPU      1.89s WALL (     180 calls)
     cegterg      :     77.34s CPU     78.44s WALL (      85 calls)

     Called by sum_band:
     sum_band:bec :      0.13s CPU      0.13s WALL (      85 calls)
     addusdens    :      5.57s CPU      6.32s WALL (      17 calls)

     Called by *egterg:
     h_psi        :     37.41s CPU     38.16s WALL (     409 calls)
     s_psi        :      7.50s CPU      7.51s WALL (     409 calls)
     g_psi        :      0.18s CPU      0.19s WALL (     319 calls)
     cdiaghg      :     19.25s CPU     19.58s WALL (     404 calls)

     Called by h_psi:
     h_psi:pot    :     37.00s CPU     37.73s WALL (     409 calls)
     h_psi:calbec :      8.57s CPU      8.82s WALL (     409 calls)
     vloc_psi     :     20.89s CPU     21.36s WALL (     409 calls)
     add_vuspsi   :      7.53s CPU      7.55s WALL (     409 calls)

     General routines
     calbec       :     12.51s CPU     12.88s WALL (     514 calls)
     fft          :      1.61s CPU      1.72s WALL (     243 calls)
     ffts         :      0.52s CPU      0.52s WALL (     603 calls)
     fftw         :     23.17s CPU     23.67s WALL (   65280 calls)
     interpolate  :      0.08s CPU      0.09s WALL (      18 calls)
 
     Parallel routines
     fft_scatt_xy :      2.76s CPU      2.81s WALL (   66126 calls)
     fft_scatt_yz :     11.14s CPU     11.43s WALL (   66126 calls)
 
     PWSCF        :   1m50.39s CPU   1m53.65s WALL

 
   This run was terminated on:   0:13:29  25Dec2021            

=------------------------------------------------------------------------------=
   JOB DONE.
=------------------------------------------------------------------------------=

     Program PWSCF v.6.4 starts on 25Dec2021 at  0:15: 1 

     This program is part of the open-source Quantum ESPRESSO suite
     for quantum simulation of materials; please cite
         "P. Giannozzi et al., J. Phys.:Condens. Matter 21 395502 (2009);
         "P. Giannozzi et al., J. Phys.:Condens. Matter 29 465901 (2017);
          URL http://www.quantum-espresso.org", 
     in publications or presentations arising from this work. More details at
     http://www.quantum-espresso.org/quote

     Parallel version (MPI), running on    40 processors

     MPI processes distributed on     1 nodes
     R & G space division:  proc/nbgrp/npool/nimage =      40
     Waiting for input...
     Reading input from standard input
Warning: card    &IONS ignored
Warning: card      ION_DYNAMICS = 'BFGS' ignored
Warning: card   / ignored
Warning: card    &CELL ignored
Warning: card      CELL_DYNAMICS = 'BFGS', ignored
Warning: card    / ignored

     Current dimensions of program PWSCF are:
     Max number of different atomic species (ntypx) = 10
     Max number of k-points (npk) =  40000
     Max angular momentum in pseudopotentials (lmaxx) =  3

     Subspace diagonalization in iterative solution of the eigenvalue problem:
     one sub-group per band group will be used
     scalapack distributed-memory algorithm (size of sub-group:  4*  4 procs)

 
     Parallelization info
     --------------------
     sticks:   dense  smooth     PW     G-vecs:    dense   smooth      PW
     Min          91      45     12                15551     5491     792
     Max          92      46     13                15574     5510     811
     Sum        3667    1813    511               622293   219865   32105
 


     bravais-lattice index     =            0
     lattice parameter (alat)  =      12.1536  a.u.
     unit-cell volume          =    5394.2596 (a.u.)^3
     number of atoms/cell      =           36
     number of atomic types    =            2
     number of electrons       =       216.00
     number of Kohn-Sham states=          130
     kinetic-energy cutoff     =      45.0000  Ry
     charge density cutoff     =     360.0000  Ry
     convergence threshold     =      1.0E-06
     mixing beta               =       0.7000
     number of iterations used =            8  local-TF  mixing
     Exchange-correlation      = SLA PW GGX GGC ( 1  4  2  2 0 0)

     celldm(1)=  12.153560  celldm(2)=   0.000000  celldm(3)=   0.000000
     celldm(4)=   0.000000  celldm(5)=   0.000000  celldm(6)=   0.000000

     crystal axes: (cart. coord. in units of alat)
               a(1) = (   1.000000   0.000000   0.000000 )  
               a(2) = (  -0.500000   0.866026   0.000000 )  
               a(3) = (   0.000000   0.000000   3.469690 )  

     reciprocal axes: (cart. coord. in units 2 pi/alat)
               b(1) = (  1.000000  0.577350  0.000000 )  
               b(2) = (  0.000000  1.154700  0.000000 )  
               b(3) = (  0.000000  0.000000  0.288210 )  


     PseudoPot. # 1 for Mo read from file:
     ~/pseudo/Mo.pw91-n-van.UPF
     MD5 check sum: Not computed, couldn't open file
     Pseudo is Ultrasoft + core correction, Zval =  6.0
     Generated by new atomic code, or converted to UPF format
     Using radial grid of  965 points,  3 beta functions with: 
                l(1) =   1
                l(2) =   2
                l(3) =   2
     Q(r) pseudized with  8 coefficients,  rinner =    1.000   1.000   1.000
                                                       1.200   1.200

     PseudoPot. # 2 for S  read from file:
     ~/pseudo/S.pw91-van_ak.UPF
     MD5 check sum: Not computed, couldn't open file
     Pseudo is Ultrasoft, Zval =  6.0
     Generated by new atomic code, or converted to UPF format
     Using radial grid of  811 points,  6 beta functions with: 
                l(1) =   0
                l(2) =   0
                l(3) =   1
                l(4) =   1
                l(5) =   2
                l(6) =   2
     Q(r) pseudized with  8 coefficients,  rinner =    1.100   1.100   1.100
                                                       1.100   1.100

     atomic species   valence    mass     pseudopotential
        Mo             6.00    95.50000     Mo( 1.00)
        S              6.00    32.06500     S ( 1.00)

     No symmetry found



   Cartesian axes

     site n.     atom                  positions (alat units)
         1           Mo  tau(   1) = (   0.2791585   0.6921671   1.5988079  )
         2           Mo  tau(   2) = (   0.5692264  -0.0321293   2.9920558  )
         3           Mo  tau(   3) = (   0.3663412   0.6508774   0.3234524  )
         4           Mo  tau(   4) = (   0.5393053   0.2664661   1.6137168  )
         5           Mo  tau(   5) = (   0.8193245   0.4107592   2.9873659  )
         6           Mo  tau(   6) = (   0.6179337   0.2103676   0.3404712  )
         7           Mo  tau(   7) = (   1.0756350  -0.0414601   2.9781156  )
         8           Mo  tau(   8) = (   0.0339303   0.2769553   1.6059783  )
         9           Mo  tau(   9) = (  -0.2099517   0.6872179   1.6023528  )
        10           Mo  tau(  10) = (   0.3154804   0.4098081   2.9711441  )
        11           Mo  tau(  11) = (   0.1144628   0.2155936   0.3388260  )
        12           Mo  tau(  12) = (  -0.1206921   0.6493440   0.3439470  )
        13           S   tau(  13) = (   0.3166405   0.6798454   2.7416328  )
        14           S   tau(  14) = (   0.3230110   0.6827243   3.2339803  )
        15           S   tau(  15) = (   0.3843956   0.0771756   0.0803642  )
        16           S   tau(  16) = (   0.3812524   0.0806652   0.5711050  )
        17           S   tau(  17) = (   0.5465203   0.5644612   1.3589673  )
        18           S   tau(  18) = (   0.5313874   0.5486270   1.8542776  )
        19           S   tau(  19) = (   0.5746926   0.2641049   2.7269244  )
        20           S   tau(  20) = (   0.5685989   0.2572410   3.2127384  )
        21           S   tau(  21) = (   0.6142859   0.5003145   0.0908281  )
        22           S   tau(  22) = (   0.6299458   0.4993569   0.5875115  )
        23           S   tau(  23) = (   0.7919747   0.1168974   1.3449169  )
        24           S   tau(  24) = (   0.7942556   0.1176829   1.8570778  )
        25           S   tau(  25) = (   0.8792039   0.0746854   0.0982303  )
        26           S   tau(  26) = (   0.8738830   0.0739586   0.5654376  )
        27           S   tau(  27) = (   0.0692520   0.2535812   2.7461490  )
        28           S   tau(  28) = (   0.0718183   0.2630813   3.2350630  )
        29           S   tau(  29) = (  -0.1848205   0.6787364   2.7393459  )
        30           S   tau(  30) = (  -0.1805903   0.7014625   3.2290305  )
        31           S   tau(  31) = (   0.1209003   0.4955905   0.0800195  )
        32           S   tau(  32) = (   0.1204862   0.5122081   0.5684776  )
        33           S   tau(  33) = (   0.2889286   0.1222986   1.3681644  )
        34           S   tau(  34) = (   0.2975810   0.1218101   1.8556809  )
        35           S   tau(  35) = (   0.0407330   0.5612470   1.3664422  )
        36           S   tau(  36) = (   0.0296291   0.5540779   1.8550900  )

     number of k points=     5  Marzari-Vanderbilt smearing, width (Ry)=  0.0200
                       cart. coord. in units 2pi/alat
        k(    1) = (   0.0000000   0.0000000   0.0000000), wk =   0.2222222
        k(    2) = (   0.0000000   0.3849001   0.0000000), wk =   0.4444444
        k(    3) = (   0.3333333   0.5773502   0.0000000), wk =   0.4444444
        k(    4) = (  -0.3333333   0.1924501   0.0000000), wk =   0.4444444
        k(    5) = (   0.3333333   0.1924501   0.0000000), wk =   0.4444444

     Dense  grid:   622293 G-vectors     FFT dimensions: (  75,  75, 256)

     Smooth grid:   219865 G-vectors     FFT dimensions: (  54,  54, 192)

     Estimated max dynamical RAM per process >      99.39 MB

     Estimated total dynamical RAM >       3.88 GB

     Initial potential from superposition of free atoms

     starting charge  215.98107, renormalised to  216.00000
     Starting wfcs are  204 randomized atomic wfcs

     total cpu time spent up to now is        4.2 secs

     Self-consistent Calculation

     iteration #  1     ecut=    45.00 Ry     beta= 0.70
     Davidson diagonalization with overlap
     ethr =  1.00E-02,  avg # of iterations =  2.0

     total cpu time spent up to now is       10.4 secs

     total energy              =    -843.98172970 Ry
     Harris-Foulkes estimate   =    -846.46142058 Ry
     estimated scf accuracy    <       6.31114674 Ry

     iteration #  2     ecut=    45.00 Ry     beta= 0.70
     Davidson diagonalization with overlap
     ethr =  2.92E-03,  avg # of iterations =  2.0

     total cpu time spent up to now is       16.0 secs

     total energy              =    -845.14501441 Ry
     Harris-Foulkes estimate   =    -845.32502223 Ry
     estimated scf accuracy    <       0.91837642 Ry

     iteration #  3     ecut=    45.00 Ry     beta= 0.70
     Davidson diagonalization with overlap
     ethr =  4.25E-04,  avg # of iterations =  2.0

     total cpu time spent up to now is       21.0 secs

     total energy              =    -845.15689778 Ry
     Harris-Foulkes estimate   =    -845.22215990 Ry
     estimated scf accuracy    <       0.19621702 Ry

     iteration #  4     ecut=    45.00 Ry     beta= 0.70
     Davidson diagonalization with overlap
     ethr =  9.08E-05,  avg # of iterations =  6.8

     total cpu time spent up to now is       30.2 secs

     total energy              =    -845.20627196 Ry
     Harris-Foulkes estimate   =    -845.22959366 Ry
     estimated scf accuracy    <       0.11366467 Ry

     iteration #  5     ecut=    45.00 Ry     beta= 0.70
     Davidson diagonalization with overlap
     ethr =  5.26E-05,  avg # of iterations =  3.0

     total cpu time spent up to now is       35.4 secs

     total energy              =    -845.20434408 Ry
     Harris-Foulkes estimate   =    -845.21298375 Ry
     estimated scf accuracy    <       0.02144470 Ry

     iteration #  6     ecut=    45.00 Ry     beta= 0.70
     Davidson diagonalization with overlap
     ethr =  9.93E-06,  avg # of iterations =  7.4

     total cpu time spent up to now is       45.8 secs

     total energy              =    -845.21102682 Ry
     Harris-Foulkes estimate   =    -845.21562755 Ry
     estimated scf accuracy    <       0.02674075 Ry

     iteration #  7     ecut=    45.00 Ry     beta= 0.70
     Davidson diagonalization with overlap
     ethr =  9.93E-06,  avg # of iterations =  1.0

     total cpu time spent up to now is       50.3 secs

     total energy              =    -845.21109629 Ry
     Harris-Foulkes estimate   =    -845.21210407 Ry
     estimated scf accuracy    <       0.00665668 Ry

     iteration #  8     ecut=    45.00 Ry     beta= 0.70
     Davidson diagonalization with overlap
     ethr =  3.08E-06,  avg # of iterations =  3.4

     total cpu time spent up to now is       55.8 secs

     total energy              =    -845.21143736 Ry
     Harris-Foulkes estimate   =    -845.21165949 Ry
     estimated scf accuracy    <       0.00120176 Ry

     iteration #  9     ecut=    45.00 Ry     beta= 0.70
     Davidson diagonalization with overlap
     ethr =  5.56E-07,  avg # of iterations =  8.2

     total cpu time spent up to now is       65.0 secs

     total energy              =    -845.21177651 Ry
     Harris-Foulkes estimate   =    -845.21178717 Ry
     estimated scf accuracy    <       0.00031068 Ry

     iteration # 10     ecut=    45.00 Ry     beta= 0.70
     Davidson diagonalization with overlap
     ethr =  1.44E-07,  avg # of iterations =  1.2

     total cpu time spent up to now is       69.5 secs

     total energy              =    -845.21177301 Ry
     Harris-Foulkes estimate   =    -845.21178346 Ry
     estimated scf accuracy    <       0.00023784 Ry

     iteration # 11     ecut=    45.00 Ry     beta= 0.70
     Davidson diagonalization with overlap
     ethr =  1.10E-07,  avg # of iterations =  3.0

     total cpu time spent up to now is       74.8 secs

     total energy              =    -845.21175803 Ry
     Harris-Foulkes estimate   =    -845.21178625 Ry
     estimated scf accuracy    <       0.00022191 Ry

     iteration # 12     ecut=    45.00 Ry     beta= 0.70
     Davidson diagonalization with overlap
     ethr =  1.03E-07,  avg # of iterations =  1.0

     total cpu time spent up to now is       79.2 secs

     total energy              =    -845.21173418 Ry
     Harris-Foulkes estimate   =    -845.21176342 Ry
     estimated scf accuracy    <       0.00012364 Ry

     iteration # 13     ecut=    45.00 Ry     beta= 0.70
     Davidson diagonalization with overlap
     ethr =  5.72E-08,  avg # of iterations =  3.0

     total cpu time spent up to now is       84.5 secs

     total energy              =    -845.21173876 Ry
     Harris-Foulkes estimate   =    -845.21174869 Ry
     estimated scf accuracy    <       0.00005190 Ry

     iteration # 14     ecut=    45.00 Ry     beta= 0.70
     Davidson diagonalization with overlap
     ethr =  2.40E-08,  avg # of iterations =  5.0

     total cpu time spent up to now is       90.5 secs

     total energy              =    -845.21174097 Ry
     Harris-Foulkes estimate   =    -845.21174453 Ry
     estimated scf accuracy    <       0.00001687 Ry

     iteration # 15     ecut=    45.00 Ry     beta= 0.70
     Davidson diagonalization with overlap
     c_bands:  1 eigenvalues not converged
     ethr =  7.81E-09,  avg # of iterations =  5.8

     total cpu time spent up to now is       96.7 secs

     total energy              =    -845.21174125 Ry
     Harris-Foulkes estimate   =    -845.21174264 Ry
     estimated scf accuracy    <       0.00000472 Ry

     iteration # 16     ecut=    45.00 Ry     beta= 0.70
     Davidson diagonalization with overlap
     ethr =  2.18E-09,  avg # of iterations =  7.0

     total cpu time spent up to now is      104.7 secs

     total energy              =    -845.21174203 Ry
     Harris-Foulkes estimate   =    -845.21174249 Ry
     estimated scf accuracy    <       0.00000203 Ry

     iteration # 17     ecut=    45.00 Ry     beta= 0.70
     Davidson diagonalization with overlap
     ethr =  9.42E-10,  avg # of iterations =  2.0

     total cpu time spent up to now is      109.5 secs

     End of self-consistent calculation

          k = 0.0000 0.0000 0.0000 ( 27457 PWs)   bands (ev):

    -9.5435  -8.5279  -8.4227  -7.9332  -7.7972  -7.4333  -7.2794  -7.2362
    -7.1727  -7.0104  -7.0049  -6.9553  -6.8895  -6.8484  -6.8158  -6.6971
    -6.6438  -6.6212  -6.5984  -6.5377  -6.5067  -6.3528  -6.3407  -6.2496
    -1.0134  -0.9643  -0.9349  -0.8987  -0.7143  -0.6397  -0.3614  -0.0927
    -0.0655  -0.0111   0.0284   0.1255   0.2033   0.3817   0.4414   0.4864
     0.5335   0.7325   0.7910   0.8386   0.9766   1.0701   1.2285   1.4619
     1.4961   1.5002   1.5886   1.6286   1.6846   1.8039   1.8584   1.9351
     2.0517   2.1425   2.2032   2.3037   2.3570   2.4247   2.5869   2.6400
     2.6581   2.7358   2.8322   2.8464   2.9293   3.0350   3.0628   3.3649
     3.4304   3.4650   3.4878   3.6477   3.6982   3.7081   3.7305   3.8325
     3.8545   3.8704   3.8930   4.0289   4.0867   4.1057   4.1577   4.2436
     4.2668   4.4182   4.4420   4.5331   4.6282   4.6469   4.7050   4.7667
     4.7702   4.7917   4.8361   4.8448   4.8856   4.9715   4.9781   5.0467
     5.1271   5.3698   5.5224   6.6586   7.1048   7.2261   7.2702   7.2912
     7.3521   7.3833   7.4402   7.4924   7.5230   7.6165   7.6941   7.7747
     7.8461   7.8711   7.9099   7.9260   7.9793   8.0263   8.0490   8.0634
     8.0785   8.1423

          k = 0.0000 0.3849 0.0000 ( 27482 PWs)   bands (ev):

    -9.1694  -8.2542  -8.1447  -8.0769  -7.7553  -7.7205  -7.5652  -7.3649
    -7.2220  -7.1245  -7.0861  -7.0323  -6.9202  -6.8697  -6.8048  -6.7883
    -6.6742  -6.6700  -6.6322  -6.5572  -6.5441  -6.4853  -6.3572  -6.2426
    -0.6903  -0.5684  -0.5121  -0.4832  -0.2079  -0.0652   0.0949   0.2319
     0.3130   0.3251   0.3279   0.3886   0.5014   0.5952   0.6446   0.7398
     0.7963   0.8080   0.8834   0.8893   0.9799   1.2619   1.4735   1.5310
     1.6344   1.6512   1.6977   1.7369   1.7896   1.8193   1.8750   1.9226
     1.9642   2.0600   2.1674   2.2521   2.2590   2.3372   2.3602   2.3943
     2.4956   2.5204   2.5906   2.6959   2.7156   2.8141   2.8322   2.9880
     3.0676   3.1302   3.1808   3.2111   3.3245   3.3376   3.3798   3.4661
     3.5829   3.6218   3.7053   3.7261   3.7833   3.8372   3.8769   3.9419
     4.0104   4.0632   4.1026   4.1838   4.2347   4.3186   4.4359   4.4585
     4.5493   4.6928   4.7324   4.7537   4.8129   4.8886   5.0049   5.1414
     5.1749   5.2263   5.2842   5.3604   7.0968   7.1618   7.2695   7.3158
     7.3515   7.3924   7.4195   7.4716   7.5285   7.5629   7.5756   7.6505
     7.7175   7.7447   7.7937   7.8475   7.8805   7.9263   7.9548   7.9941
     8.0336   8.0467

          k = 0.3333 0.5774 0.0000 ( 27519 PWs)   bands (ev):

    -8.6568  -8.5112  -8.4084  -7.6784  -7.6366  -7.6093  -7.5370  -7.4037
    -7.3472  -7.2760  -7.2549  -7.2156  -7.1325  -6.9466  -6.7911  -6.7552
    -6.7410  -6.6676  -6.6515  -6.5923  -6.5400  -6.4318  -6.3767  -6.2073
    -0.4295  -0.3883  -0.3463  -0.2966  -0.2213   0.0921   0.3358   0.5046
     0.5952   0.6081   0.6577   0.7140   0.7706   0.8950   0.9546   0.9904
     1.0823   1.1483   1.1650   1.2376   1.2544   1.3210   1.3674   1.4857
     1.5215   1.5762   1.5941   1.7160   1.7789   1.8121   1.8545   1.8621
     1.9222   1.9402   1.9530   2.0175   2.0342   2.0586   2.1212   2.1319
     2.1599   2.2762   2.4667   2.4785   2.5692   2.5740   2.6185   2.6387
     2.7001   2.7409   2.8359   3.0117   3.1217   3.2116   3.2546   3.3467
     3.3814   3.4184   3.5170   3.5480   3.7044   3.8556   3.8851   3.9719
     4.0422   4.1405   4.3733   4.4141   4.4298   4.4560   4.5254   4.5659
     4.6085   4.6447   4.6664   4.7035   4.7344   4.7854   4.7918   4.8657
     4.8882   5.3549   5.4961   5.6021   6.7693   6.8530   6.9080   6.9320
     7.0426   7.1605   7.2212   7.2656   7.2961   7.3916   7.4341   7.5220
     7.5740   7.6804   7.7351   7.7728   7.7841   7.8049   7.8128   7.8902
     7.9674   7.9775

          k =-0.3333 0.1925 0.0000 ( 27482 PWs)   bands (ev):

    -9.1975  -8.3776  -8.1452  -8.0677  -7.7046  -7.5179  -7.3631  -7.3499
    -7.2548  -7.1542  -7.1205  -7.1047  -6.9362  -6.8850  -6.8392  -6.7375
    -6.7078  -6.6699  -6.6059  -6.6028  -6.5694  -6.4708  -6.3764  -6.3318
    -0.6881  -0.6052  -0.5892  -0.4424  -0.3729  -0.2300   0.1861   0.2624
     0.3078   0.3687   0.4055   0.4993   0.5117   0.5305   0.5715   0.5915
     0.7995   0.8024   0.8713   1.1301   1.2324   1.3797   1.4665   1.5005
     1.5821   1.6510   1.7250   1.8080   1.8131   1.8800   1.8936   1.9574
     2.0555   2.1141   2.1501   2.1920   2.2033   2.2666   2.3254   2.3555
     2.4458   2.4745   2.6269   2.7325   2.8115   2.8747   2.8853   2.9965
     3.0511   3.1368   3.1959   3.2241   3.2357   3.3283   3.3593   3.3864
     3.4764   3.5321   3.5680   3.6411   3.7176   3.7651   3.8025   3.8973
     4.0092   4.0737   4.1266   4.1947   4.2593   4.3132   4.4654   4.4828
     4.6475   4.7066   4.8149   4.9030   4.9386   4.9874   5.0248   5.0739
     5.1548   5.1901   5.3410   5.6643   6.9908   7.0839   7.1476   7.2580
     7.2988   7.3486   7.4089   7.4484   7.4890   7.5483   7.5891   7.6190
     7.6986   7.7277   7.7602   7.7797   7.8793   7.9195   7.9314   7.9687
     8.0052   8.0698

          k = 0.3333 0.1925 0.0000 ( 27482 PWs)   bands (ev):

    -9.1736  -8.2422  -8.1525  -8.0670  -7.7875  -7.6800  -7.5571  -7.3557
    -7.2226  -7.1576  -7.0942  -7.0158  -6.9035  -6.8760  -6.8161  -6.7822
    -6.7013  -6.6752  -6.6417  -6.5658  -6.5351  -6.3857  -6.3814  -6.2874
    -0.6836  -0.5860  -0.5169  -0.4724  -0.2522   0.0064   0.0244   0.2079
     0.2982   0.3261   0.3519   0.4641   0.5267   0.5545   0.6009   0.7520
     0.7601   0.7704   0.7992   0.8741   1.0123   1.3278   1.4638   1.4899
     1.6010   1.6833   1.7121   1.7746   1.8300   1.8467   1.8904   1.9259
     1.9906   2.0597   2.1319   2.2357   2.2927   2.3205   2.3823   2.3942
     2.4779   2.4997   2.6216   2.7401   2.7833   2.8489   2.8704   2.9750
     3.0927   3.1592   3.1706   3.2308   3.2982   3.3018   3.3616   3.4881
     3.5218   3.6033   3.6606   3.7212   3.7732   3.8472   3.8917   3.9034
     3.9833   4.0353   4.1193   4.1856   4.2773   4.3173   4.3985   4.4160
     4.5519   4.5769   4.7575   4.8150   4.8944   4.9712   5.0476   5.1050
     5.1257   5.1426   5.2664   5.2919   7.0908   7.2000   7.2654   7.3689
     7.3894   7.4031   7.4355   7.5130   7.5401   7.5886   7.6194   7.6485
     7.7018   7.7253   7.8293   7.8359   7.8730   7.9205   7.9263   7.9940
     8.0668   8.0992

     the Fermi energy is     6.6486 ev

!    total energy              =    -845.21174193 Ry
     Harris-Foulkes estimate   =    -845.21174220 Ry
     estimated scf accuracy    <       0.00000030 Ry

     The total energy is the sum of the following terms:

     one-electron contribution =    -858.32911467 Ry
     hartree contribution      =     545.27719676 Ry
     xc contribution           =    -334.88470631 Ry
     ewald contribution        =    -197.27159351 Ry
     smearing contrib. (-TS)   =      -0.00352420 Ry

     convergence has been achieved in  17 iterations

     Forces acting on atoms (cartesian axes, Ry/au):

     atom    1 type  1   force =     0.07016615    0.05718157    0.06565609
     atom    2 type  1   force =     0.01583444   -0.00767241   -0.08947178
     atom    3 type  1   force =     0.03503420   -0.03378169    0.06326788
     atom    4 type  1   force =     0.02755719   -0.01408273   -0.05282725
     atom    5 type  1   force =     0.01676782   -0.05464447   -0.01473396
     atom    6 type  1   force =     0.04834854    0.06964880   -0.06826400
     atom    7 type  1   force =    -0.04921318    0.04827845    0.03891215
     atom    8 type  1   force =     0.02052127   -0.08339316    0.01051129
     atom    9 type  1   force =    -0.02662282    0.08607513    0.06355877
     atom   10 type  1   force =     0.02938359   -0.08105267    0.07811216
     atom   11 type  1   force =     0.09178325    0.02377320   -0.04862811
     atom   12 type  1   force =    -0.06611910    0.01587085   -0.09176676
     atom   13 type  2   force =    -0.00330954    0.06550477   -0.04642087
     atom   14 type  2   force =     0.00508238    0.01591279   -0.06908322
     atom   15 type  2   force =    -0.03835634   -0.01337228    0.08504971
     atom   16 type  2   force =    -0.05428970   -0.03216517    0.07024929
     atom   17 type  2   force =    -0.03250490   -0.04487025   -0.00787167
     atom   18 type  2   force =     0.00384073    0.01807989   -0.01136254
     atom   19 type  2   force =    -0.00564223   -0.01790434    0.03178930
     atom   20 type  2   force =    -0.00623447    0.02145730   -0.00193631
     atom   21 type  2   force =     0.02944351    0.01265048    0.05334813
     atom   22 type  2   force =    -0.02546605    0.01944266   -0.02013963
     atom   23 type  2   force =    -0.01340828    0.01735839    0.05136744
     atom   24 type  2   force =    -0.01153061   -0.00076110   -0.03244824
     atom   25 type  2   force =    -0.04057894    0.00424790   -0.01303284
     atom   26 type  2   force =    -0.01469259   -0.03400500    0.08091955
     atom   27 type  2   force =    -0.01717324   -0.00083138   -0.03208183
     atom   28 type  2   force =     0.00049442   -0.02777738   -0.09274323
     atom   29 type  2   force =     0.03298440    0.03502099   -0.02741915
     atom   30 type  2   force =     0.00091449   -0.03604757   -0.02321351
     atom   31 type  2   force =    -0.01665915    0.03192433    0.07379247
     atom   32 type  2   force =     0.03228424   -0.02401822    0.06399224
     atom   33 type  2   force =    -0.00077933    0.00415233   -0.00193581
     atom   34 type  2   force =    -0.03357728   -0.01105797   -0.01994444
     atom   35 type  2   force =    -0.02245379   -0.03168333   -0.07166119
     atom   36 type  2   force =     0.01817095    0.00254133    0.00645985

     Total force =     0.448340     Total SCF correction =     0.001213
 
     init_run     :      3.29s CPU      3.43s WALL (       1 calls)
     electrons    :    102.77s CPU    105.30s WALL (       1 calls)
     forces       :      1.87s CPU      1.93s WALL (       1 calls)

     Called by init_run:
     wfcinit      :      2.13s CPU      2.18s WALL (       1 calls)
     potinit      :      0.24s CPU      0.25s WALL (       1 calls)
     hinit0       :      0.34s CPU      0.36s WALL (       1 calls)

     Called by electrons:
     c_bands      :     82.64s CPU     83.85s WALL (      17 calls)
     sum_band     :     14.63s CPU     15.55s WALL (      17 calls)
     v_of_rho     :      1.07s CPU      1.11s WALL (      18 calls)
     newd         :      3.30s CPU      3.68s WALL (      18 calls)
     mix_rho      :      1.23s CPU      1.25s WALL (      17 calls)

     Called by c_bands:
     init_us_2    :      1.92s CPU      1.94s WALL (     180 calls)
     cegterg      :     77.09s CPU     78.25s WALL (      85 calls)

     Called by sum_band:
     sum_band:bec :      0.16s CPU      0.16s WALL (      85 calls)
     addusdens    :      5.14s CPU      5.80s WALL (      17 calls)

     Called by *egterg:
     h_psi        :     37.92s CPU     38.67s WALL (     409 calls)
     s_psi        :      7.63s CPU      7.65s WALL (     409 calls)
     g_psi        :      0.19s CPU      0.20s WALL (     319 calls)
     cdiaghg      :     19.32s CPU     19.65s WALL (     404 calls)

     Called by h_psi:
     h_psi:pot    :     37.51s CPU     38.25s WALL (     409 calls)
     h_psi:calbec :      8.67s CPU      8.98s WALL (     409 calls)
     vloc_psi     :     21.06s CPU     21.49s WALL (     409 calls)
     add_vuspsi   :      7.77s CPU      7.78s WALL (     409 calls)

     General routines
     calbec       :     12.58s CPU     13.07s WALL (     514 calls)
     fft          :      1.01s CPU      1.06s WALL (     243 calls)
     ffts         :      0.53s CPU      0.54s WALL (     603 calls)
     fftw         :     23.40s CPU     23.87s WALL (   65280 calls)
     interpolate  :      0.09s CPU      0.09s WALL (      18 calls)
 
     Parallel routines
     fft_scatt_xy :      2.81s CPU      2.87s WALL (   66126 calls)
     fft_scatt_yz :     10.72s CPU     10.99s WALL (   66126 calls)
 
     PWSCF        :   1m48.64s CPU   1m51.45s WALL

 
   This run was terminated on:   0:16:52  25Dec2021            

=------------------------------------------------------------------------------=
   JOB DONE.
=------------------------------------------------------------------------------=
