
     Program PWSCF v.6.4 starts on 25Dec2021 at  0: 9:18 

     This program is part of the open-source Quantum ESPRESSO suite
     for quantum simulation of materials; please cite
         "P. Giannozzi et al., J. Phys.:Condens. Matter 21 395502 (2009);
         "P. Giannozzi et al., J. Phys.:Condens. Matter 29 465901 (2017);
          URL http://www.quantum-espresso.org", 
     in publications or presentations arising from this work. More details at
     http://www.quantum-espresso.org/quote

     Parallel version (MPI), running on    40 processors

     MPI processes distributed on     1 nodes
     R & G space division:  proc/nbgrp/npool/nimage =      40
     Waiting for input...
     Reading input from standard input
Warning: card    &IONS ignored
Warning: card      ION_DYNAMICS = 'BFGS' ignored
Warning: card   / ignored
Warning: card    &CELL ignored
Warning: card      CELL_DYNAMICS = 'BFGS', ignored
Warning: card    / ignored

     Current dimensions of program PWSCF are:
     Max number of different atomic species (ntypx) = 10
     Max number of k-points (npk) =  40000
     Max angular momentum in pseudopotentials (lmaxx) =  3

     Subspace diagonalization in iterative solution of the eigenvalue problem:
     one sub-group per band group will be used
     scalapack distributed-memory algorithm (size of sub-group:  4*  4 procs)

     Found symmetry operation: I + (  0.0000 -0.5000  0.0000)
     This is a supercell, fractional translations are disabled
 
     Parallelization info
     --------------------
     sticks:   dense  smooth     PW     G-vecs:    dense   smooth      PW
     Min          91      45     12                15619     5515     796
     Max          92      46     13                15644     5534     815
     Sum        3667    1813    511               625065   220861   32249
 


     bravais-lattice index     =            0
     lattice parameter (alat)  =      12.1536  a.u.
     unit-cell volume          =    5418.4329 (a.u.)^3
     number of atoms/cell      =           36
     number of atomic types    =            2
     number of electrons       =       216.00
     number of Kohn-Sham states=          130
     kinetic-energy cutoff     =      45.0000  Ry
     charge density cutoff     =     360.0000  Ry
     convergence threshold     =      1.0E-06
     mixing beta               =       0.7000
     number of iterations used =            8  local-TF  mixing
     Exchange-correlation      = SLA PW GGX GGC ( 1  4  2  2 0 0)

     celldm(1)=  12.153560  celldm(2)=   0.000000  celldm(3)=   0.000000
     celldm(4)=   0.000000  celldm(5)=   0.000000  celldm(6)=   0.000000

     crystal axes: (cart. coord. in units of alat)
               a(1) = (   1.000000   0.000000   0.000000 )  
               a(2) = (  -0.500000   0.866026   0.000000 )  
               a(3) = (   0.000000   0.000000   3.485238 )  

     reciprocal axes: (cart. coord. in units 2 pi/alat)
               b(1) = (  1.000000  0.577350  0.000000 )  
               b(2) = (  0.000000  1.154700  0.000000 )  
               b(3) = (  0.000000  0.000000  0.286924 )  


     PseudoPot. # 1 for Mo read from file:
     ~/pseudo/Mo.pw91-n-van.UPF
     MD5 check sum: Not computed, couldn't open file
     Pseudo is Ultrasoft + core correction, Zval =  6.0
     Generated by new atomic code, or converted to UPF format
     Using radial grid of  965 points,  3 beta functions with: 
                l(1) =   1
                l(2) =   2
                l(3) =   2
     Q(r) pseudized with  8 coefficients,  rinner =    1.000   1.000   1.000
                                                       1.200   1.200

     PseudoPot. # 2 for S  read from file:
     ~/pseudo/S.pw91-van_ak.UPF
     MD5 check sum: Not computed, couldn't open file
     Pseudo is Ultrasoft, Zval =  6.0
     Generated by new atomic code, or converted to UPF format
     Using radial grid of  811 points,  6 beta functions with: 
                l(1) =   0
                l(2) =   0
                l(3) =   1
                l(4) =   1
                l(5) =   2
                l(6) =   2
     Q(r) pseudized with  8 coefficients,  rinner =    1.100   1.100   1.100
                                                       1.100   1.100

     atomic species   valence    mass     pseudopotential
        Mo             6.00    95.50000     Mo( 1.00)
        S              6.00    32.06500     S ( 1.00)

     No symmetry found



   Cartesian axes

     site n.     atom                  positions (alat units)
         1           Mo  tau(   1) = (   0.2377459   0.7303851   1.6012862  )
         2           Mo  tau(   2) = (   0.4877454   0.0086975   2.7111818  )
         3           Mo  tau(   3) = (   0.3750000   0.6495192   0.3322790  )
         4           Mo  tau(   4) = (   0.4877459   0.2973723   1.6012862  )
         5           Mo  tau(   5) = (   0.7377453   0.4417102   2.7111818  )
         6           Mo  tau(   6) = (   0.6250000   0.2165063   0.3322790  )
         7           Mo  tau(   7) = (   0.9877453   0.0086975   2.7111818  )
         8           Mo  tau(   8) = (  -0.0122541   0.2973723   1.6012862  )
         9           Mo  tau(   9) = (  -0.2622541   0.7303851   1.6012862  )
        10           Mo  tau(  10) = (   0.2377454   0.4417102   2.7111818  )
        11           Mo  tau(  11) = (   0.1250000   0.2165063   0.3322790  )
        12           Mo  tau(  12) = (  -0.1250000   0.6495192   0.3322790  )
        13           S   tau(  13) = (   0.2377459   0.7303851   2.4656882  )
        14           S   tau(  14) = (   0.2377459   0.7303851   2.9566236  )
        15           S   tau(  15) = (   0.3749997   0.0721689   0.0867969  )
        16           S   tau(  16) = (   0.3749997   0.0721689   0.5776964  )
        17           S   tau(  17) = (   0.4877456   0.5860477   1.3557261  )
        18           S   tau(  18) = (   0.4877456   0.5860477   1.8468248  )
        19           S   tau(  19) = (   0.4877459   0.2973723   2.4656881  )
        20           S   tau(  20) = (   0.4877459   0.2973723   2.9566229  )
        21           S   tau(  21) = (   0.6249998   0.5051816   0.0867969  )
        22           S   tau(  22) = (   0.6249997   0.5051817   0.5776964  )
        23           S   tau(  23) = (   0.7377456   0.1530349   1.3557261  )
        24           S   tau(  24) = (   0.7377456   0.1530349   1.8468248  )
        25           S   tau(  25) = (   0.8749998   0.0721689   0.0867969  )
        26           S   tau(  26) = (   0.8749998   0.0721689   0.5776964  )
        27           S   tau(  27) = (  -0.0122541   0.2973723   2.4656882  )
        28           S   tau(  28) = (  -0.0122541   0.2973723   2.9566236  )
        29           S   tau(  29) = (  -0.2622541   0.7303851   2.4656882  )
        30           S   tau(  30) = (  -0.2622541   0.7303851   2.9566236  )
        31           S   tau(  31) = (   0.1249998   0.5051817   0.0867969  )
        32           S   tau(  32) = (   0.1249998   0.5051817   0.5776964  )
        33           S   tau(  33) = (   0.2377457   0.1530349   1.3557260  )
        34           S   tau(  34) = (   0.2377457   0.1530349   1.8468247  )
        35           S   tau(  35) = (  -0.0122543   0.5860477   1.3557261  )
        36           S   tau(  36) = (  -0.0122543   0.5860477   1.8468248  )

     number of k points=     5  Marzari-Vanderbilt smearing, width (Ry)=  0.0200
                       cart. coord. in units 2pi/alat
        k(    1) = (   0.0000000   0.0000000   0.0000000), wk =   0.2222222
        k(    2) = (   0.0000000   0.3849001   0.0000000), wk =   0.4444444
        k(    3) = (   0.3333333   0.5773502   0.0000000), wk =   0.4444444
        k(    4) = (  -0.3333333   0.1924501   0.0000000), wk =   0.4444444
        k(    5) = (   0.3333333   0.1924501   0.0000000), wk =   0.4444444

     Dense  grid:   625065 G-vectors     FFT dimensions: (  75,  75, 256)

     Smooth grid:   220861 G-vectors     FFT dimensions: (  54,  54, 192)

     Estimated max dynamical RAM per process >      99.86 MB

     Estimated total dynamical RAM >       3.90 GB

     Initial potential from superposition of free atoms

     starting charge  215.98107, renormalised to  216.00000
     Starting wfcs are  204 randomized atomic wfcs

     total cpu time spent up to now is        6.7 secs

     Self-consistent Calculation

     iteration #  1     ecut=    45.00 Ry     beta= 0.70
     Davidson diagonalization with overlap
     ethr =  1.00E-02,  avg # of iterations =  2.0

     total cpu time spent up to now is       12.9 secs

     total energy              =    -844.24891077 Ry
     Harris-Foulkes estimate   =    -846.85776501 Ry
     estimated scf accuracy    <       6.66664348 Ry

     iteration #  2     ecut=    45.00 Ry     beta= 0.70
     Davidson diagonalization with overlap
     ethr =  3.09E-03,  avg # of iterations =  2.8

     total cpu time spent up to now is       18.7 secs

     total energy              =    -845.47911479 Ry
     Harris-Foulkes estimate   =    -845.63483577 Ry
     estimated scf accuracy    <       0.80785007 Ry

     iteration #  3     ecut=    45.00 Ry     beta= 0.70
     Davidson diagonalization with overlap
     ethr =  3.74E-04,  avg # of iterations =  2.0

     total cpu time spent up to now is       23.8 secs

     total energy              =    -845.47603229 Ry
     Harris-Foulkes estimate   =    -845.55763212 Ry
     estimated scf accuracy    <       0.19983599 Ry

     iteration #  4     ecut=    45.00 Ry     beta= 0.70
     Davidson diagonalization with overlap
     ethr =  9.25E-05,  avg # of iterations =  3.8

     total cpu time spent up to now is       30.9 secs

     total energy              =    -845.51886409 Ry
     Harris-Foulkes estimate   =    -845.56738342 Ry
     estimated scf accuracy    <       0.16236394 Ry

     iteration #  5     ecut=    45.00 Ry     beta= 0.70
     Davidson diagonalization with overlap
     ethr =  7.52E-05,  avg # of iterations =  2.6

     total cpu time spent up to now is       36.3 secs

     total energy              =    -845.54298802 Ry
     Harris-Foulkes estimate   =    -845.54340466 Ry
     estimated scf accuracy    <       0.00367053 Ry

     iteration #  6     ecut=    45.00 Ry     beta= 0.70
     Davidson diagonalization with overlap
     ethr =  1.70E-06,  avg # of iterations =  9.4

     total cpu time spent up to now is       50.1 secs

     total energy              =    -845.54449013 Ry
     Harris-Foulkes estimate   =    -845.54581192 Ry
     estimated scf accuracy    <       0.00809847 Ry

     iteration #  7     ecut=    45.00 Ry     beta= 0.70
     Davidson diagonalization with overlap
     ethr =  1.70E-06,  avg # of iterations =  2.0

     total cpu time spent up to now is       55.8 secs

     total energy              =    -845.54450090 Ry
     Harris-Foulkes estimate   =    -845.54479722 Ry
     estimated scf accuracy    <       0.00230180 Ry

     iteration #  8     ecut=    45.00 Ry     beta= 0.70
     Davidson diagonalization with overlap
     ethr =  1.07E-06,  avg # of iterations =  3.0

     total cpu time spent up to now is       61.3 secs

     total energy              =    -845.54443840 Ry
     Harris-Foulkes estimate   =    -845.54462699 Ry
     estimated scf accuracy    <       0.00072682 Ry

     iteration #  9     ecut=    45.00 Ry     beta= 0.70
     Davidson diagonalization with overlap
     ethr =  3.36E-07,  avg # of iterations =  3.0

     total cpu time spent up to now is       67.6 secs

     total energy              =    -845.54462412 Ry
     Harris-Foulkes estimate   =    -845.54464122 Ry
     estimated scf accuracy    <       0.00010486 Ry

     iteration # 10     ecut=    45.00 Ry     beta= 0.70
     Davidson diagonalization with overlap
     ethr =  4.85E-08,  avg # of iterations =  2.2

     total cpu time spent up to now is       72.7 secs

     total energy              =    -845.54461510 Ry
     Harris-Foulkes estimate   =    -845.54463003 Ry
     estimated scf accuracy    <       0.00005581 Ry

     iteration # 11     ecut=    45.00 Ry     beta= 0.70
     Davidson diagonalization with overlap
     ethr =  2.58E-08,  avg # of iterations =  3.0

     total cpu time spent up to now is       78.6 secs

     total energy              =    -845.54462405 Ry
     Harris-Foulkes estimate   =    -845.54462579 Ry
     estimated scf accuracy    <       0.00000421 Ry

     iteration # 12     ecut=    45.00 Ry     beta= 0.70
     Davidson diagonalization with overlap
     ethr =  1.95E-09,  avg # of iterations =  3.0

     total cpu time spent up to now is       84.8 secs

     End of self-consistent calculation

          k = 0.0000 0.0000 0.0000 ( 27553 PWs)   bands (ev):

    -8.6351  -8.6056  -8.5998  -7.4463  -7.4118  -7.3936  -6.8932  -6.8907
    -6.8906  -6.8702  -6.8701  -6.8682  -6.8655  -6.8655  -6.8654  -6.6271
    -6.6245  -6.6245  -6.6035  -6.6035  -6.6016  -6.5996  -6.5996  -6.5985
    -0.2649  -0.2595  -0.2595  -0.2378  -0.2377  -0.2339  -0.2317  -0.2317
    -0.2294  -0.2004  -0.0750  -0.0099   0.6710   0.6814   0.6815   0.7053
     0.7055   0.7062   0.7125   0.7126   0.7228   1.3348   1.3620   1.3620
     1.3905   1.3907   1.3959   1.4078   1.4080   1.4281   2.2649   2.2651
     2.2652   2.2855   2.2856   2.2859   2.2905   2.2906   2.2906   2.7833
     2.7833   2.8019   2.8020   2.8073   2.8073   3.4257   3.4378   3.4867
     3.4873   3.5330   3.5388   3.5400   3.5702   3.5708   3.6249   3.6263
     3.8978   3.8979   3.9183   3.9184   3.9229   3.9229   4.0309   4.4236
     4.4254   4.4254   4.4471   4.4473   4.4491   4.4527   4.4528   4.4531
     4.6879   4.7092   4.7094   4.7337   4.7340   4.7438   4.7512   4.7515
     4.7697   5.1712   5.4427   5.5384   7.3892   7.3895   7.3896   7.4079
     7.4082   7.4083   7.4103   7.4105   7.4107   7.8933   7.9041   7.9042
     7.9262   7.9263   7.9308   7.9353   7.9354   7.9422   8.0711   8.0731
     8.0948   8.0952

          k = 0.0000 0.3849 0.0000 ( 27574 PWs)   bands (ev):

    -8.2700  -8.2411  -8.2356  -7.4167  -7.3909  -7.3865  -7.2692  -7.2370
    -7.2218  -6.9150  -6.9139  -6.8913  -6.8904  -6.8873  -6.8872  -6.8634
    -6.8373  -6.8294  -6.6140  -6.6127  -6.5899  -6.5891  -6.5857  -6.5851
     0.1837   0.1861   0.2039   0.2159   0.2169   0.2212   0.2229   0.2486
     0.2936   0.3061   0.3241   0.3865   0.6122   0.6139   0.6352   0.6373
     0.6402   0.6410   1.2801   1.3148   1.3509   1.4957   1.5465   1.5538
     1.5628   1.5810   1.6134   1.6183   1.6303   1.6484   2.0611   2.0804
     2.0854   2.1996   2.2027   2.2416   2.2433   2.2687   2.2723   2.4891
     2.5755   2.5811   2.6015   2.6064   2.6760   3.0493   3.0573   3.0844
     3.0858   3.0908   3.0957   3.1864   3.2052   3.2105   3.3655   3.3858
     3.3906   3.6128   3.6385   3.6707   3.6722   3.6979   3.7062   3.7234
     3.7702   3.8694   4.0247   4.0447   4.0497   4.1992   4.2892   4.3912
     4.4306   4.4364   4.4857   4.8670   4.8706   4.8895   4.8937   4.8948
     4.8954   4.9802   5.1056   5.1362   7.3882   7.3897   7.4247   7.4454
     7.4484   7.4598   7.4600   7.4622   7.4711   7.4759   7.4787   7.6113
     7.6231   7.6602   7.6840   7.8466   7.8578   7.8805   7.8829   7.8906
     7.9001   7.9034

          k = 0.3333 0.5774 0.0000 ( 27687 PWs)   bands (ev):

    -7.6535  -7.6535  -7.6531  -7.6262  -7.6260  -7.6259  -7.6214  -7.6212
    -7.6212  -6.9709  -6.9708  -6.9702  -6.9423  -6.9421  -6.9421  -6.9323
    -6.9318  -6.9317  -6.6500  -6.6293  -6.6253  -6.4624  -6.4411  -6.4383
     0.1209   0.1416   0.1460   0.5205   0.5207   0.5207   0.5956   0.5956
     0.5957   0.6270   0.6270   0.6274   0.9050   0.9271   0.9302   1.4016
     1.4238   1.4281   1.5737   1.5738   1.5813   1.6178   1.6188   1.6188
     1.6313   1.6384   1.6385   1.8146   1.8146   1.8161   1.8233   1.8491
     1.8492   1.8498   1.8596   1.8608   1.8616   1.8617   1.8694   2.2313
     2.2314   2.2336   2.2818   2.2826   2.2826   2.3321   2.3336   2.3337
     2.5148   2.5387   2.5402   3.2054   3.2430   3.2663   3.4374   3.4380
     3.4380   3.4581   3.4582   3.4587   3.4625   3.4626   3.4626   4.2491
     4.2491   4.2661   4.3102   4.3113   4.3113   4.3883   4.4034   4.4035
     4.5692   4.5693   4.5706   4.5887   4.5928   4.5928   4.5966   4.5975
     4.5976   5.3209   5.3398   5.3426   6.9509   6.9713   6.9749   7.1022
     7.1022   7.1027   7.2546   7.2546   7.2555   7.3029   7.3040   7.3041
     7.6608   7.6608   7.6622   7.7052   7.7057   7.7057   7.7302   7.7314
     7.7315   7.9069

          k =-0.3333 0.1925 0.0000 ( 27574 PWs)   bands (ev):

    -8.2701  -8.2410  -8.2355  -7.4176  -7.3904  -7.3862  -7.2695  -7.2370
    -7.2215  -6.9134  -6.9133  -6.8917  -6.8917  -6.8873  -6.8873  -6.8647
    -6.8368  -6.8284  -6.6122  -6.6122  -6.5904  -6.5903  -6.5860  -6.5860
     0.1862   0.1862   0.2033   0.2158   0.2158   0.2211   0.2211   0.2475
     0.2939   0.3074   0.3241   0.3870   0.6143   0.6143   0.6350   0.6351
     0.6400   0.6400   1.2752   1.3153   1.3556   1.4777   1.5456   1.5806
     1.5824   1.5825   1.6126   1.6129   1.6296   1.6299   2.0603   2.0810
     2.0854   2.2030   2.2031   2.2417   2.2417   2.2686   2.2686   2.4893
     2.5756   2.5809   2.6018   2.6064   2.6762   3.0572   3.0572   3.0840
     3.0841   3.0909   3.0910   3.1863   3.2053   3.2105   3.3654   3.3861
     3.3906   3.6403   3.6407   3.6733   3.6742   3.6751   3.6902   3.6908
     3.7718   3.8994   4.0239   4.0454   4.0497   4.1875   4.2893   4.3842
     4.4325   4.4470   4.4952   4.8706   4.8707   4.8896   4.8898   4.8948
     4.8949   4.9764   5.1068   5.1448   7.3881   7.3882   7.4231   7.4468
     7.4490   7.4554   7.4598   7.4599   7.4692   7.4773   7.4774   7.6064
     7.6217   7.6620   7.6840   7.8445   7.8546   7.8812   7.8854   7.8937
     7.9045   7.9046

          k = 0.3333 0.1925 0.0000 ( 27574 PWs)   bands (ev):

    -8.2700  -8.2411  -8.2356  -7.4167  -7.3909  -7.3865  -7.2692  -7.2370
    -7.2218  -6.9150  -6.9139  -6.8913  -6.8904  -6.8873  -6.8872  -6.8634
    -6.8373  -6.8294  -6.6140  -6.6127  -6.5899  -6.5891  -6.5857  -6.5851
     0.1837   0.1861   0.2039   0.2159   0.2169   0.2212   0.2229   0.2486
     0.2936   0.3061   0.3241   0.3865   0.6122   0.6139   0.6353   0.6373
     0.6402   0.6410   1.2802   1.3146   1.3510   1.4957   1.5466   1.5538
     1.5626   1.5810   1.6131   1.6183   1.6305   1.6484   2.0611   2.0804
     2.0854   2.1996   2.2027   2.2416   2.2433   2.2687   2.2723   2.4891
     2.5755   2.5811   2.6015   2.6064   2.6760   3.0493   3.0573   3.0843
     3.0858   3.0909   3.0957   3.1864   3.2051   3.2105   3.3655   3.3858
     3.3906   3.6128   3.6382   3.6707   3.6728   3.6976   3.7064   3.7234
     3.7699   3.8695   4.0246   4.0447   4.0497   4.1993   4.2891   4.3912
     4.4307   4.4363   4.4857   4.8670   4.8706   4.8895   4.8937   4.8948
     4.8954   4.9802   5.1056   5.1362   7.3882   7.3897   7.4247   7.4454
     7.4484   7.4598   7.4600   7.4622   7.4711   7.4760   7.4787   7.6113
     7.6231   7.6602   7.6840   7.8466   7.8578   7.8805   7.8829   7.8906
     7.9001   7.9034

     the Fermi energy is     5.4928 ev

!    total energy              =    -845.54462462 Ry
     Harris-Foulkes estimate   =    -845.54462498 Ry
     estimated scf accuracy    <       0.00000043 Ry

     The total energy is the sum of the following terms:

     one-electron contribution =    -302.61796509 Ry
     hartree contribution      =     267.15399826 Ry
     xc contribution           =    -334.15332190 Ry
     ewald contribution        =    -475.94744257 Ry
     smearing contrib. (-TS)   =       0.02010668 Ry

     convergence has been achieved in  12 iterations

     Forces acting on atoms (cartesian axes, Ry/au):

     atom    1 type  1   force =     0.00045800    0.00029459    0.00091771
     atom    2 type  1   force =     0.00019730   -0.00048219   -0.00089946
     atom    3 type  1   force =     0.00038951    0.00072044   -0.00113804
     atom    4 type  1   force =    -0.00030263   -0.00020324    0.00086644
     atom    5 type  1   force =     0.00032468    0.00020335   -0.00075026
     atom    6 type  1   force =     0.00044591   -0.00025842   -0.00104087
     atom    7 type  1   force =    -0.00020873   -0.00014888   -0.00069672
     atom    8 type  1   force =     0.00029983   -0.00072621    0.00102674
     atom    9 type  1   force =    -0.00045861    0.00064001    0.00098874
     atom   10 type  1   force =    -0.00030530    0.00041888   -0.00084712
     atom   11 type  1   force =    -0.00043372   -0.00069947   -0.00114051
     atom   12 type  1   force =    -0.00037787    0.00021808   -0.00105569
     atom   13 type  2   force =     0.00019502    0.00007472   -0.00014851
     atom   14 type  2   force =     0.00004478    0.00003116    0.00022681
     atom   15 type  2   force =    -0.00014219   -0.00030849    0.00009294
     atom   16 type  2   force =    -0.00008374   -0.00024350    0.00104057
     atom   17 type  2   force =    -0.00006423    0.00025054   -0.00041110
     atom   18 type  2   force =    -0.00012205    0.00024589   -0.00023088
     atom   19 type  2   force =     0.00006058    0.00009257   -0.00024087
     atom   20 type  2   force =    -0.00001947   -0.00003574    0.00027034
     atom   21 type  2   force =     0.00020507    0.00028109    0.00008524
     atom   22 type  2   force =     0.00017531    0.00019295    0.00104724
     atom   23 type  2   force =     0.00014953   -0.00018391   -0.00034369
     atom   24 type  2   force =     0.00011926   -0.00024109   -0.00014167
     atom   25 type  2   force =     0.00012004   -0.00005842   -0.00011236
     atom   26 type  2   force =     0.00002198   -0.00000570    0.00090673
     atom   27 type  2   force =    -0.00000981   -0.00016038    0.00011015
     atom   28 type  2   force =     0.00004057   -0.00022033    0.00050491
     atom   29 type  2   force =    -0.00021612    0.00000851    0.00004826
     atom   30 type  2   force =    -0.00021267    0.00021010    0.00038361
     atom   31 type  2   force =    -0.00020005    0.00011332   -0.00004811
     atom   32 type  2   force =    -0.00002242    0.00000767    0.00087443
     atom   33 type  2   force =    -0.00011301   -0.00005053   -0.00018250
     atom   34 type  2   force =    -0.00010770   -0.00010677    0.00007987
     atom   35 type  2   force =     0.00003789    0.00004794   -0.00006637
     atom   36 type  2   force =     0.00011507    0.00008147    0.00002397

     Total force =     0.004592     Total SCF correction =     0.001986
     SCF correction compared to forces is large: reduce conv_thr to get better values
 
     init_run     :      5.54s CPU      5.80s WALL (       1 calls)
     electrons    :     76.00s CPU     78.10s WALL (       1 calls)
     forces       :      1.95s CPU      2.05s WALL (       1 calls)

     Called by init_run:
     wfcinit      :      4.21s CPU      4.32s WALL (       1 calls)
     potinit      :      0.24s CPU      0.25s WALL (       1 calls)
     hinit0       :      0.46s CPU      0.52s WALL (       1 calls)

     Called by electrons:
     c_bands      :     60.57s CPU     61.41s WALL (      12 calls)
     sum_band     :     11.19s CPU     12.07s WALL (      12 calls)
     v_of_rho     :      0.84s CPU      0.88s WALL (      13 calls)
     newd         :      2.76s CPU      3.15s WALL (      13 calls)
     mix_rho      :      0.78s CPU      0.78s WALL (      12 calls)

     Called by c_bands:
     init_us_2    :      1.66s CPU      1.67s WALL (     130 calls)
     cegterg      :     56.52s CPU     57.35s WALL (      60 calls)

     Called by sum_band:
     sum_band:bec :      0.08s CPU      0.08s WALL (      60 calls)
     addusdens    :      4.26s CPU      4.95s WALL (      12 calls)

     Called by *egterg:
     h_psi        :     31.09s CPU     31.72s WALL (     259 calls)
     s_psi        :      5.68s CPU      5.68s WALL (     259 calls)
     g_psi        :      0.15s CPU      0.15s WALL (     194 calls)
     cdiaghg      :     12.86s CPU     13.07s WALL (     254 calls)

     Called by h_psi:
     h_psi:pot    :     30.76s CPU     31.39s WALL (     259 calls)
     h_psi:calbec :      6.48s CPU      6.80s WALL (     259 calls)
     vloc_psi     :     18.35s CPU     18.65s WALL (     259 calls)
     add_vuspsi   :      5.93s CPU      5.94s WALL (     259 calls)

     General routines
     calbec       :      9.58s CPU     10.04s WALL (     339 calls)
     fft          :      0.82s CPU      0.91s WALL (     178 calls)
     ffts         :      0.33s CPU      0.33s WALL (     362 calls)
     fftw         :     20.28s CPU     20.62s WALL (   48624 calls)
     interpolate  :      0.06s CPU      0.07s WALL (      13 calls)
 
     Parallel routines
     fft_scatt_xy :      1.93s CPU      1.97s WALL (   49164 calls)
     fft_scatt_yz :     11.12s CPU     11.33s WALL (   49164 calls)
 
     PWSCF        :   1m24.26s CPU   1m26.88s WALL

 
   This run was terminated on:   0:10:45  25Dec2021            

=------------------------------------------------------------------------------=
   JOB DONE.
=------------------------------------------------------------------------------=

     Program PWSCF v.6.4 starts on 25Dec2021 at  0:12:16 

     This program is part of the open-source Quantum ESPRESSO suite
     for quantum simulation of materials; please cite
         "P. Giannozzi et al., J. Phys.:Condens. Matter 21 395502 (2009);
         "P. Giannozzi et al., J. Phys.:Condens. Matter 29 465901 (2017);
          URL http://www.quantum-espresso.org", 
     in publications or presentations arising from this work. More details at
     http://www.quantum-espresso.org/quote

     Parallel version (MPI), running on    40 processors

     MPI processes distributed on     1 nodes
     R & G space division:  proc/nbgrp/npool/nimage =      40
     Waiting for input...
     Reading input from standard input
Warning: card    &IONS ignored
Warning: card      ION_DYNAMICS = 'BFGS' ignored
Warning: card   / ignored
Warning: card    &CELL ignored
Warning: card      CELL_DYNAMICS = 'BFGS', ignored
Warning: card    / ignored

     Current dimensions of program PWSCF are:
     Max number of different atomic species (ntypx) = 10
     Max number of k-points (npk) =  40000
     Max angular momentum in pseudopotentials (lmaxx) =  3

     Subspace diagonalization in iterative solution of the eigenvalue problem:
     one sub-group per band group will be used
     scalapack distributed-memory algorithm (size of sub-group:  4*  4 procs)

     Found symmetry operation: I + (  0.0000 -0.5000  0.0000)
     This is a supercell, fractional translations are disabled
 
     Parallelization info
     --------------------
     sticks:   dense  smooth     PW     G-vecs:    dense   smooth      PW
     Min          91      45     12                15619     5515     796
     Max          92      46     13                15644     5534     815
     Sum        3667    1813    511               625065   220861   32249
 


     bravais-lattice index     =            0
     lattice parameter (alat)  =      12.1536  a.u.
     unit-cell volume          =    5418.4329 (a.u.)^3
     number of atoms/cell      =           36
     number of atomic types    =            2
     number of electrons       =       216.00
     number of Kohn-Sham states=          130
     kinetic-energy cutoff     =      45.0000  Ry
     charge density cutoff     =     360.0000  Ry
     convergence threshold     =      1.0E-06
     mixing beta               =       0.7000
     number of iterations used =            8  local-TF  mixing
     Exchange-correlation      = SLA PW GGX GGC ( 1  4  2  2 0 0)

     celldm(1)=  12.153560  celldm(2)=   0.000000  celldm(3)=   0.000000
     celldm(4)=   0.000000  celldm(5)=   0.000000  celldm(6)=   0.000000

     crystal axes: (cart. coord. in units of alat)
               a(1) = (   1.000000   0.000000   0.000000 )  
               a(2) = (  -0.500000   0.866026   0.000000 )  
               a(3) = (   0.000000   0.000000   3.485238 )  

     reciprocal axes: (cart. coord. in units 2 pi/alat)
               b(1) = (  1.000000  0.577350  0.000000 )  
               b(2) = (  0.000000  1.154700  0.000000 )  
               b(3) = (  0.000000  0.000000  0.286924 )  


     PseudoPot. # 1 for Mo read from file:
     ~/pseudo/Mo.pw91-n-van.UPF
     MD5 check sum: Not computed, couldn't open file
     Pseudo is Ultrasoft + core correction, Zval =  6.0
     Generated by new atomic code, or converted to UPF format
     Using radial grid of  965 points,  3 beta functions with: 
                l(1) =   1
                l(2) =   2
                l(3) =   2
     Q(r) pseudized with  8 coefficients,  rinner =    1.000   1.000   1.000
                                                       1.200   1.200

     PseudoPot. # 2 for S  read from file:
     ~/pseudo/S.pw91-van_ak.UPF
     MD5 check sum: Not computed, couldn't open file
     Pseudo is Ultrasoft, Zval =  6.0
     Generated by new atomic code, or converted to UPF format
     Using radial grid of  811 points,  6 beta functions with: 
                l(1) =   0
                l(2) =   0
                l(3) =   1
                l(4) =   1
                l(5) =   2
                l(6) =   2
     Q(r) pseudized with  8 coefficients,  rinner =    1.100   1.100   1.100
                                                       1.100   1.100

     atomic species   valence    mass     pseudopotential
        Mo             6.00    95.50000     Mo( 1.00)
        S              6.00    32.06500     S ( 1.00)

     No symmetry found



   Cartesian axes

     site n.     atom                  positions (alat units)
         1           Mo  tau(   1) = (   0.2377459   0.7303851   1.6012862  )
         2           Mo  tau(   2) = (   0.4877454   0.0086975   2.7111818  )
         3           Mo  tau(   3) = (   0.3750000   0.6495192   0.3322790  )
         4           Mo  tau(   4) = (   0.4877459   0.2973723   1.6012862  )
         5           Mo  tau(   5) = (   0.7377453   0.4417102   2.7111818  )
         6           Mo  tau(   6) = (   0.6250000   0.2165063   0.3322790  )
         7           Mo  tau(   7) = (   0.9877453   0.0086975   2.7111818  )
         8           Mo  tau(   8) = (  -0.0122541   0.2973723   1.6012862  )
         9           Mo  tau(   9) = (  -0.2622541   0.7303851   1.6012862  )
        10           Mo  tau(  10) = (   0.2377454   0.4417102   2.7111818  )
        11           Mo  tau(  11) = (   0.1250000   0.2165063   0.3322790  )
        12           Mo  tau(  12) = (  -0.1250000   0.6495192   0.3322790  )
        13           S   tau(  13) = (   0.2377459   0.7303851   2.4656882  )
        14           S   tau(  14) = (   0.2377459   0.7303851   2.9566236  )
        15           S   tau(  15) = (   0.3749997   0.0721689   0.0867969  )
        16           S   tau(  16) = (   0.3749997   0.0721689   0.5776964  )
        17           S   tau(  17) = (   0.4877456   0.5860477   1.3557261  )
        18           S   tau(  18) = (   0.4877456   0.5860477   1.8468248  )
        19           S   tau(  19) = (   0.4877459   0.2973723   2.4656881  )
        20           S   tau(  20) = (   0.4877459   0.2973723   2.9566229  )
        21           S   tau(  21) = (   0.6249998   0.5051816   0.0867969  )
        22           S   tau(  22) = (   0.6249997   0.5051817   0.5776964  )
        23           S   tau(  23) = (   0.7377456   0.1530349   1.3557261  )
        24           S   tau(  24) = (   0.7377456   0.1530349   1.8468248  )
        25           S   tau(  25) = (   0.8749998   0.0721689   0.0867969  )
        26           S   tau(  26) = (   0.8749998   0.0721689   0.5776964  )
        27           S   tau(  27) = (  -0.0122541   0.2973723   2.4656882  )
        28           S   tau(  28) = (  -0.0122541   0.2973723   2.9566236  )
        29           S   tau(  29) = (  -0.2622541   0.7303851   2.4656882  )
        30           S   tau(  30) = (  -0.2622541   0.7303851   2.9566236  )
        31           S   tau(  31) = (   0.1249998   0.5051817   0.0867969  )
        32           S   tau(  32) = (   0.1249998   0.5051817   0.5776964  )
        33           S   tau(  33) = (   0.2377457   0.1530349   1.3557260  )
        34           S   tau(  34) = (   0.2377457   0.1530349   1.8468247  )
        35           S   tau(  35) = (  -0.0122543   0.5860477   1.3557261  )
        36           S   tau(  36) = (  -0.0122543   0.5860477   1.8468248  )

     number of k points=     5  Marzari-Vanderbilt smearing, width (Ry)=  0.0200
                       cart. coord. in units 2pi/alat
        k(    1) = (   0.0000000   0.0000000   0.0000000), wk =   0.2222222
        k(    2) = (   0.0000000   0.3849001   0.0000000), wk =   0.4444444
        k(    3) = (   0.3333333   0.5773502   0.0000000), wk =   0.4444444
        k(    4) = (  -0.3333333   0.1924501   0.0000000), wk =   0.4444444
        k(    5) = (   0.3333333   0.1924501   0.0000000), wk =   0.4444444

     Dense  grid:   625065 G-vectors     FFT dimensions: (  75,  75, 256)

     Smooth grid:   220861 G-vectors     FFT dimensions: (  54,  54, 192)

     Estimated max dynamical RAM per process >      99.86 MB

     Estimated total dynamical RAM >       3.90 GB

     Initial potential from superposition of free atoms

     starting charge  215.98107, renormalised to  216.00000
     Starting wfcs are  204 randomized atomic wfcs

     total cpu time spent up to now is        4.3 secs

     Self-consistent Calculation

     iteration #  1     ecut=    45.00 Ry     beta= 0.70
     Davidson diagonalization with overlap
     ethr =  1.00E-02,  avg # of iterations =  2.0

     total cpu time spent up to now is       13.0 secs

     total energy              =    -844.24891077 Ry
     Harris-Foulkes estimate   =    -846.85776501 Ry
     estimated scf accuracy    <       6.66664348 Ry

     iteration #  2     ecut=    45.00 Ry     beta= 0.70
     Davidson diagonalization with overlap
     ethr =  3.09E-03,  avg # of iterations =  2.8

     total cpu time spent up to now is       18.8 secs

     total energy              =    -845.47911479 Ry
     Harris-Foulkes estimate   =    -845.63483577 Ry
     estimated scf accuracy    <       0.80785007 Ry

     iteration #  3     ecut=    45.00 Ry     beta= 0.70
     Davidson diagonalization with overlap
     ethr =  3.74E-04,  avg # of iterations =  2.0

     total cpu time spent up to now is       23.9 secs

     total energy              =    -845.47603229 Ry
     Harris-Foulkes estimate   =    -845.55763212 Ry
     estimated scf accuracy    <       0.19983599 Ry

     iteration #  4     ecut=    45.00 Ry     beta= 0.70
     Davidson diagonalization with overlap
     ethr =  9.25E-05,  avg # of iterations =  3.8

     total cpu time spent up to now is       31.1 secs

     total energy              =    -845.51886409 Ry
     Harris-Foulkes estimate   =    -845.56738342 Ry
     estimated scf accuracy    <       0.16236394 Ry

     iteration #  5     ecut=    45.00 Ry     beta= 0.70
     Davidson diagonalization with overlap
     ethr =  7.52E-05,  avg # of iterations =  2.6

     total cpu time spent up to now is       36.6 secs

     total energy              =    -845.54298802 Ry
     Harris-Foulkes estimate   =    -845.54340466 Ry
     estimated scf accuracy    <       0.00367053 Ry

     iteration #  6     ecut=    45.00 Ry     beta= 0.70
     Davidson diagonalization with overlap
     ethr =  1.70E-06,  avg # of iterations =  9.4

     total cpu time spent up to now is       49.7 secs

     total energy              =    -845.54449013 Ry
     Harris-Foulkes estimate   =    -845.54581192 Ry
     estimated scf accuracy    <       0.00809847 Ry

     iteration #  7     ecut=    45.00 Ry     beta= 0.70
     Davidson diagonalization with overlap
     ethr =  1.70E-06,  avg # of iterations =  2.0

     total cpu time spent up to now is       54.8 secs

     total energy              =    -845.54450090 Ry
     Harris-Foulkes estimate   =    -845.54479722 Ry
     estimated scf accuracy    <       0.00230180 Ry

     iteration #  8     ecut=    45.00 Ry     beta= 0.70
     Davidson diagonalization with overlap
     ethr =  1.07E-06,  avg # of iterations =  3.0

     total cpu time spent up to now is       60.2 secs

     total energy              =    -845.54443840 Ry
     Harris-Foulkes estimate   =    -845.54462699 Ry
     estimated scf accuracy    <       0.00072682 Ry

     iteration #  9     ecut=    45.00 Ry     beta= 0.70
     Davidson diagonalization with overlap
     ethr =  3.36E-07,  avg # of iterations =  3.0

     total cpu time spent up to now is       66.6 secs

     total energy              =    -845.54462412 Ry
     Harris-Foulkes estimate   =    -845.54464122 Ry
     estimated scf accuracy    <       0.00010486 Ry

     iteration # 10     ecut=    45.00 Ry     beta= 0.70
     Davidson diagonalization with overlap
     ethr =  4.85E-08,  avg # of iterations =  2.2

     total cpu time spent up to now is       71.7 secs

     total energy              =    -845.54461510 Ry
     Harris-Foulkes estimate   =    -845.54463003 Ry
     estimated scf accuracy    <       0.00005581 Ry

     iteration # 11     ecut=    45.00 Ry     beta= 0.70
     Davidson diagonalization with overlap
     ethr =  2.58E-08,  avg # of iterations =  3.0

     total cpu time spent up to now is       77.7 secs

     total energy              =    -845.54462405 Ry
     Harris-Foulkes estimate   =    -845.54462579 Ry
     estimated scf accuracy    <       0.00000421 Ry

     iteration # 12     ecut=    45.00 Ry     beta= 0.70
     Davidson diagonalization with overlap
     ethr =  1.95E-09,  avg # of iterations =  3.0

     total cpu time spent up to now is       83.8 secs

     End of self-consistent calculation

          k = 0.0000 0.0000 0.0000 ( 27553 PWs)   bands (ev):

    -8.6351  -8.6056  -8.5998  -7.4463  -7.4118  -7.3936  -6.8932  -6.8907
    -6.8906  -6.8702  -6.8701  -6.8682  -6.8655  -6.8655  -6.8654  -6.6271
    -6.6245  -6.6245  -6.6035  -6.6035  -6.6016  -6.5996  -6.5996  -6.5985
    -0.2649  -0.2595  -0.2595  -0.2378  -0.2377  -0.2339  -0.2317  -0.2317
    -0.2294  -0.2004  -0.0750  -0.0099   0.6710   0.6814   0.6815   0.7053
     0.7055   0.7062   0.7125   0.7126   0.7228   1.3348   1.3620   1.3620
     1.3905   1.3907   1.3959   1.4078   1.4080   1.4281   2.2649   2.2651
     2.2652   2.2855   2.2856   2.2859   2.2905   2.2906   2.2906   2.7833
     2.7833   2.8019   2.8020   2.8073   2.8073   3.4257   3.4378   3.4867
     3.4873   3.5330   3.5388   3.5400   3.5702   3.5708   3.6249   3.6263
     3.8978   3.8979   3.9183   3.9184   3.9229   3.9229   4.0309   4.4236
     4.4254   4.4254   4.4471   4.4473   4.4491   4.4527   4.4528   4.4531
     4.6879   4.7092   4.7094   4.7337   4.7340   4.7438   4.7512   4.7515
     4.7697   5.1712   5.4427   5.5384   7.3892   7.3895   7.3896   7.4079
     7.4082   7.4083   7.4103   7.4105   7.4107   7.8933   7.9041   7.9042
     7.9262   7.9263   7.9308   7.9353   7.9354   7.9422   8.0711   8.0731
     8.0948   8.0952

          k = 0.0000 0.3849 0.0000 ( 27574 PWs)   bands (ev):

    -8.2700  -8.2411  -8.2356  -7.4167  -7.3909  -7.3865  -7.2692  -7.2370
    -7.2218  -6.9150  -6.9139  -6.8913  -6.8904  -6.8873  -6.8872  -6.8634
    -6.8373  -6.8294  -6.6140  -6.6127  -6.5899  -6.5891  -6.5857  -6.5851
     0.1837   0.1861   0.2039   0.2159   0.2169   0.2212   0.2229   0.2486
     0.2936   0.3061   0.3241   0.3865   0.6122   0.6139   0.6352   0.6373
     0.6402   0.6410   1.2801   1.3148   1.3509   1.4957   1.5465   1.5538
     1.5628   1.5810   1.6134   1.6183   1.6303   1.6484   2.0611   2.0804
     2.0854   2.1996   2.2027   2.2416   2.2433   2.2687   2.2723   2.4891
     2.5755   2.5811   2.6015   2.6064   2.6760   3.0493   3.0573   3.0844
     3.0858   3.0908   3.0957   3.1864   3.2052   3.2105   3.3655   3.3858
     3.3906   3.6128   3.6385   3.6707   3.6722   3.6979   3.7062   3.7234
     3.7702   3.8694   4.0247   4.0447   4.0497   4.1992   4.2892   4.3912
     4.4306   4.4364   4.4857   4.8670   4.8706   4.8895   4.8937   4.8948
     4.8954   4.9802   5.1056   5.1362   7.3882   7.3897   7.4247   7.4454
     7.4484   7.4598   7.4600   7.4622   7.4711   7.4759   7.4787   7.6113
     7.6231   7.6602   7.6840   7.8466   7.8578   7.8805   7.8829   7.8906
     7.9001   7.9034

          k = 0.3333 0.5774 0.0000 ( 27687 PWs)   bands (ev):

    -7.6535  -7.6535  -7.6531  -7.6262  -7.6260  -7.6259  -7.6214  -7.6212
    -7.6212  -6.9709  -6.9708  -6.9702  -6.9423  -6.9421  -6.9421  -6.9323
    -6.9318  -6.9317  -6.6500  -6.6293  -6.6253  -6.4624  -6.4411  -6.4383
     0.1209   0.1416   0.1460   0.5205   0.5207   0.5207   0.5956   0.5956
     0.5957   0.6270   0.6270   0.6274   0.9050   0.9271   0.9302   1.4016
     1.4238   1.4281   1.5737   1.5738   1.5813   1.6178   1.6188   1.6188
     1.6313   1.6384   1.6385   1.8146   1.8146   1.8161   1.8233   1.8491
     1.8492   1.8498   1.8596   1.8608   1.8616   1.8617   1.8694   2.2313
     2.2314   2.2336   2.2818   2.2826   2.2826   2.3321   2.3336   2.3337
     2.5148   2.5387   2.5402   3.2054   3.2430   3.2663   3.4374   3.4380
     3.4380   3.4581   3.4582   3.4587   3.4625   3.4626   3.4626   4.2491
     4.2491   4.2661   4.3102   4.3113   4.3113   4.3883   4.4034   4.4035
     4.5692   4.5693   4.5706   4.5887   4.5928   4.5928   4.5966   4.5975
     4.5976   5.3209   5.3398   5.3426   6.9509   6.9713   6.9749   7.1022
     7.1022   7.1027   7.2546   7.2546   7.2555   7.3029   7.3040   7.3041
     7.6608   7.6608   7.6622   7.7052   7.7057   7.7057   7.7302   7.7314
     7.7315   7.9069

          k =-0.3333 0.1925 0.0000 ( 27574 PWs)   bands (ev):

    -8.2701  -8.2410  -8.2355  -7.4176  -7.3904  -7.3862  -7.2695  -7.2370
    -7.2215  -6.9134  -6.9133  -6.8917  -6.8917  -6.8873  -6.8873  -6.8647
    -6.8368  -6.8284  -6.6122  -6.6122  -6.5904  -6.5903  -6.5860  -6.5860
     0.1862   0.1862   0.2033   0.2158   0.2158   0.2211   0.2211   0.2475
     0.2939   0.3074   0.3241   0.3870   0.6143   0.6143   0.6350   0.6351
     0.6400   0.6400   1.2752   1.3153   1.3556   1.4777   1.5456   1.5806
     1.5824   1.5825   1.6126   1.6129   1.6296   1.6299   2.0603   2.0810
     2.0854   2.2030   2.2031   2.2417   2.2417   2.2686   2.2686   2.4893
     2.5756   2.5809   2.6018   2.6064   2.6762   3.0572   3.0572   3.0840
     3.0841   3.0909   3.0910   3.1863   3.2053   3.2105   3.3654   3.3861
     3.3906   3.6403   3.6407   3.6733   3.6742   3.6751   3.6902   3.6908
     3.7718   3.8994   4.0239   4.0454   4.0497   4.1875   4.2893   4.3842
     4.4325   4.4470   4.4952   4.8706   4.8707   4.8896   4.8898   4.8948
     4.8949   4.9764   5.1068   5.1448   7.3881   7.3882   7.4231   7.4468
     7.4490   7.4554   7.4598   7.4599   7.4692   7.4773   7.4774   7.6064
     7.6217   7.6620   7.6840   7.8445   7.8546   7.8812   7.8854   7.8937
     7.9045   7.9046

          k = 0.3333 0.1925 0.0000 ( 27574 PWs)   bands (ev):

    -8.2700  -8.2411  -8.2356  -7.4167  -7.3909  -7.3865  -7.2692  -7.2370
    -7.2218  -6.9150  -6.9139  -6.8913  -6.8904  -6.8873  -6.8872  -6.8634
    -6.8373  -6.8294  -6.6140  -6.6127  -6.5899  -6.5891  -6.5857  -6.5851
     0.1837   0.1861   0.2039   0.2159   0.2169   0.2212   0.2229   0.2486
     0.2936   0.3061   0.3241   0.3865   0.6122   0.6139   0.6353   0.6373
     0.6402   0.6410   1.2802   1.3146   1.3510   1.4957   1.5466   1.5538
     1.5626   1.5810   1.6131   1.6183   1.6305   1.6484   2.0611   2.0804
     2.0854   2.1996   2.2027   2.2416   2.2433   2.2687   2.2723   2.4891
     2.5755   2.5811   2.6015   2.6064   2.6760   3.0493   3.0573   3.0843
     3.0858   3.0909   3.0957   3.1864   3.2051   3.2105   3.3655   3.3858
     3.3906   3.6128   3.6382   3.6707   3.6728   3.6976   3.7064   3.7234
     3.7699   3.8695   4.0246   4.0447   4.0497   4.1993   4.2891   4.3912
     4.4307   4.4363   4.4857   4.8670   4.8706   4.8895   4.8937   4.8948
     4.8954   4.9802   5.1056   5.1362   7.3882   7.3897   7.4247   7.4454
     7.4484   7.4598   7.4600   7.4622   7.4711   7.4760   7.4787   7.6113
     7.6231   7.6602   7.6840   7.8466   7.8578   7.8805   7.8829   7.8906
     7.9001   7.9034

     the Fermi energy is     5.4928 ev

!    total energy              =    -845.54462462 Ry
     Harris-Foulkes estimate   =    -845.54462498 Ry
     estimated scf accuracy    <       0.00000043 Ry

     The total energy is the sum of the following terms:

     one-electron contribution =    -302.61796509 Ry
     hartree contribution      =     267.15399826 Ry
     xc contribution           =    -334.15332190 Ry
     ewald contribution        =    -475.94744257 Ry
     smearing contrib. (-TS)   =       0.02010668 Ry

     convergence has been achieved in  12 iterations

     Forces acting on atoms (cartesian axes, Ry/au):

     atom    1 type  1   force =     0.00045800    0.00029459    0.00091771
     atom    2 type  1   force =     0.00019730   -0.00048219   -0.00089946
     atom    3 type  1   force =     0.00038951    0.00072044   -0.00113804
     atom    4 type  1   force =    -0.00030263   -0.00020324    0.00086644
     atom    5 type  1   force =     0.00032468    0.00020335   -0.00075026
     atom    6 type  1   force =     0.00044591   -0.00025842   -0.00104087
     atom    7 type  1   force =    -0.00020873   -0.00014888   -0.00069672
     atom    8 type  1   force =     0.00029983   -0.00072621    0.00102674
     atom    9 type  1   force =    -0.00045861    0.00064001    0.00098874
     atom   10 type  1   force =    -0.00030530    0.00041888   -0.00084712
     atom   11 type  1   force =    -0.00043372   -0.00069947   -0.00114051
     atom   12 type  1   force =    -0.00037787    0.00021808   -0.00105569
     atom   13 type  2   force =     0.00019502    0.00007472   -0.00014851
     atom   14 type  2   force =     0.00004478    0.00003116    0.00022681
     atom   15 type  2   force =    -0.00014219   -0.00030849    0.00009294
     atom   16 type  2   force =    -0.00008374   -0.00024350    0.00104057
     atom   17 type  2   force =    -0.00006423    0.00025054   -0.00041110
     atom   18 type  2   force =    -0.00012205    0.00024589   -0.00023088
     atom   19 type  2   force =     0.00006058    0.00009257   -0.00024087
     atom   20 type  2   force =    -0.00001947   -0.00003574    0.00027034
     atom   21 type  2   force =     0.00020507    0.00028109    0.00008524
     atom   22 type  2   force =     0.00017531    0.00019295    0.00104724
     atom   23 type  2   force =     0.00014953   -0.00018391   -0.00034369
     atom   24 type  2   force =     0.00011926   -0.00024109   -0.00014167
     atom   25 type  2   force =     0.00012004   -0.00005842   -0.00011236
     atom   26 type  2   force =     0.00002198   -0.00000570    0.00090673
     atom   27 type  2   force =    -0.00000981   -0.00016038    0.00011015
     atom   28 type  2   force =     0.00004057   -0.00022033    0.00050491
     atom   29 type  2   force =    -0.00021612    0.00000851    0.00004826
     atom   30 type  2   force =    -0.00021267    0.00021010    0.00038361
     atom   31 type  2   force =    -0.00020005    0.00011332   -0.00004811
     atom   32 type  2   force =    -0.00002242    0.00000767    0.00087443
     atom   33 type  2   force =    -0.00011301   -0.00005053   -0.00018250
     atom   34 type  2   force =    -0.00010770   -0.00010677    0.00007987
     atom   35 type  2   force =     0.00003789    0.00004794   -0.00006637
     atom   36 type  2   force =     0.00011507    0.00008147    0.00002397

     Total force =     0.004592     Total SCF correction =     0.001986
     SCF correction compared to forces is large: reduce conv_thr to get better values
 
     init_run     :      3.34s CPU      3.48s WALL (       1 calls)
     electrons    :     77.42s CPU     79.55s WALL (       1 calls)
     forces       :      1.96s CPU      2.05s WALL (       1 calls)

     Called by init_run:
     wfcinit      :      2.16s CPU      2.21s WALL (       1 calls)
     potinit      :      0.24s CPU      0.25s WALL (       1 calls)
     hinit0       :      0.34s CPU      0.35s WALL (       1 calls)

     Called by electrons:
     c_bands      :     62.19s CPU     62.98s WALL (      12 calls)
     sum_band     :     11.11s CPU     11.98s WALL (      12 calls)
     v_of_rho     :      0.78s CPU      0.82s WALL (      13 calls)
     newd         :      2.69s CPU      3.13s WALL (      13 calls)
     mix_rho      :      0.77s CPU      0.78s WALL (      12 calls)

     Called by c_bands:
     init_us_2    :      1.61s CPU      1.63s WALL (     130 calls)
     cegterg      :     58.09s CPU     58.87s WALL (      60 calls)

     Called by sum_band:
     sum_band:bec :      0.11s CPU      0.12s WALL (      60 calls)
     addusdens    :      4.27s CPU      4.95s WALL (      12 calls)

     Called by *egterg:
     h_psi        :     31.06s CPU     31.65s WALL (     259 calls)
     s_psi        :      5.69s CPU      5.69s WALL (     259 calls)
     g_psi        :      0.15s CPU      0.15s WALL (     194 calls)
     cdiaghg      :     12.85s CPU     12.99s WALL (     254 calls)

     Called by h_psi:
     h_psi:pot    :     30.75s CPU     31.33s WALL (     259 calls)
     h_psi:calbec :      6.40s CPU      6.66s WALL (     259 calls)
     vloc_psi     :     18.31s CPU     18.62s WALL (     259 calls)
     add_vuspsi   :      6.04s CPU      6.05s WALL (     259 calls)

     General routines
     calbec       :      9.45s CPU      9.87s WALL (     339 calls)
     fft          :      0.67s CPU      0.72s WALL (     178 calls)
     ffts         :      0.32s CPU      0.33s WALL (     362 calls)
     fftw         :     19.90s CPU     20.23s WALL (   48624 calls)
     interpolate  :      0.07s CPU      0.07s WALL (      13 calls)
 
     Parallel routines
     fft_scatt_xy :      2.04s CPU      2.08s WALL (   49164 calls)
     fft_scatt_yz :     10.32s CPU     10.52s WALL (   49164 calls)
 
     PWSCF        :   1m23.51s CPU   1m25.93s WALL

 
   This run was terminated on:   0:13:42  25Dec2021            

=------------------------------------------------------------------------------=
   JOB DONE.
=------------------------------------------------------------------------------=
