
     Program PWSCF v.6.4 starts on 23Dec2021 at 22:41:45 

     This program is part of the open-source Quantum ESPRESSO suite
     for quantum simulation of materials; please cite
         "P. Giannozzi et al., J. Phys.:Condens. Matter 21 395502 (2009);
         "P. Giannozzi et al., J. Phys.:Condens. Matter 29 465901 (2017);
          URL http://www.quantum-espresso.org", 
     in publications or presentations arising from this work. More details at
     http://www.quantum-espresso.org/quote

     Parallel version (MPI), running on    40 processors

     MPI processes distributed on     1 nodes
     R & G space division:  proc/nbgrp/npool/nimage =      40
     Waiting for input...
     Reading input from standard input
Warning: card    &IONS ignored
Warning: card      ION_DYNAMICS = 'BFGS' ignored
Warning: card   / ignored
Warning: card    &CELL ignored
Warning: card      CELL_DYNAMICS = 'BFGS', ignored
Warning: card    / ignored

     Current dimensions of program PWSCF are:
     Max number of different atomic species (ntypx) = 10
     Max number of k-points (npk) =  40000
     Max angular momentum in pseudopotentials (lmaxx) =  3

     Subspace diagonalization in iterative solution of the eigenvalue problem:
     one sub-group per band group will be used
     scalapack distributed-memory algorithm (size of sub-group:  4*  4 procs)

 
     Parallelization info
     --------------------
     sticks:   dense  smooth     PW     G-vecs:    dense   smooth      PW
     Min         107      53     14                 9923     3504     492
     Max         108      54     15                 9933     3515     501
     Sum        4317    2151    579               397157   140357   19829
 


     bravais-lattice index     =            0
     lattice parameter (alat)  =      10.6795  a.u.
     unit-cell volume          =    3443.4193 (a.u.)^3
     number of atoms/cell      =           21
     number of atomic types    =            2
     number of electrons       =       126.00
     number of Kohn-Sham states=           76
     kinetic-energy cutoff     =      45.0000  Ry
     charge density cutoff     =     360.0000  Ry
     convergence threshold     =      1.0E-06
     mixing beta               =       0.7000
     number of iterations used =            8  local-TF  mixing
     Exchange-correlation      = SLA PW GGX GGC ( 1  4  2  2 0 0)

     celldm(1)=  10.679515  celldm(2)=   0.000000  celldm(3)=   0.000000
     celldm(4)=   0.000000  celldm(5)=   0.000000  celldm(6)=   0.000000

     crystal axes: (cart. coord. in units of alat)
               a(1) = (   1.000000   0.000000   0.000000 )  
               a(2) = (  -0.470558   1.320042   0.000000 )  
               a(3) = (  -0.207397  -0.073817   2.141645 )  

     reciprocal axes: (cart. coord. in units 2 pi/alat)
               b(1) = (  1.000000  0.356472  0.109127 )  
               b(2) = (  0.000000  0.757552  0.026111 )  
               b(3) = (  0.000000  0.000000  0.466931 )  


     PseudoPot. # 1 for Mo read from file:
     ~/pseudo/Mo.pw91-n-van.UPF
     MD5 check sum: Not computed, couldn't open file
     Pseudo is Ultrasoft + core correction, Zval =  6.0
     Generated by new atomic code, or converted to UPF format
     Using radial grid of  965 points,  3 beta functions with: 
                l(1) =   1
                l(2) =   2
                l(3) =   2
     Q(r) pseudized with  8 coefficients,  rinner =    1.000   1.000   1.000
                                                       1.200   1.200

     PseudoPot. # 2 for S  read from file:
     ~/pseudo/S.pw91-van_ak.UPF
     MD5 check sum: Not computed, couldn't open file
     Pseudo is Ultrasoft, Zval =  6.0
     Generated by new atomic code, or converted to UPF format
     Using radial grid of  811 points,  6 beta functions with: 
                l(1) =   0
                l(2) =   0
                l(3) =   1
                l(4) =   1
                l(5) =   2
                l(6) =   2
     Q(r) pseudized with  8 coefficients,  rinner =    1.100   1.100   1.100
                                                       1.100   1.100

     atomic species   valence    mass     pseudopotential
        Mo             6.00    95.50000     Mo( 1.00)
        S              6.00    32.06500     S ( 1.00)

     No symmetry found



   Cartesian axes

     site n.     atom                  positions (alat units)
         1           Mo  tau(   1) = (   0.1565606   0.2942235   1.6096688  )
         2           Mo  tau(   2) = (   0.5906142   0.3447846   1.3524875  )
         3           Mo  tau(   3) = (   0.1040796   0.5108947   0.5006622  )
         4           Mo  tau(   4) = (   0.1380986   0.2089016   2.1094712  )
         5           Mo  tau(   5) = (   0.5927408   0.2406145   1.8477806  )
         6           Mo  tau(   6) = (   0.0917257   0.4225637   0.9902382  )
         7           Mo  tau(   7) = (   0.6597180   0.4768461   0.7513716  )
         8           S   tau(   8) = (   0.2984158   0.7487290   0.7849902  )
         9           S   tau(   9) = (  -0.0490630   0.1067131   1.2589965  )
        10           S   tau(  10) = (  -0.0479219   0.1716568   0.6679206  )
        11           S   tau(  11) = (   0.4506283   0.1642203   0.9733844  )
        12           S   tau(  12) = (  -0.0528492  -0.0350995   1.8289357  )
        13           S   tau(  13) = (   0.2926646   0.5449166   1.9414035  )
        14           S   tau(  14) = (   0.4495429  -0.0156305   1.5315806  )
        15           S   tau(  15) = (  -0.0114107   0.4864647   0.0836695  )
        16           S   tau(  16) = (  -0.2273211   0.6858196   1.1058794  )
        17           S   tau(  17) = (   0.2703825   0.6285357   1.3520100  )
        18           S   tau(  18) = (  -0.2002522   0.8163739   0.5036193  )
        19           S   tau(  19) = (  -0.2013418   0.5706249   1.6547301  )
        20           S   tau(  20) = (  -0.0259143   1.2255750   2.1129942  )
        21           S   tau(  21) = (   0.4593386   0.3015551   0.3858782  )

     number of k points=     8  Marzari-Vanderbilt smearing, width (Ry)=  0.0200
                       cart. coord. in units 2pi/alat
        k(    1) = (   0.0000000   0.0000000   0.0000000), wk =   0.1666667
        k(    2) = (   0.0000000   0.0000000  -0.2334654), wk =   0.1666667
        k(    3) = (   0.0000000  -0.3787758  -0.0130554), wk =   0.1666667
        k(    4) = (   0.0000000  -0.3787758  -0.2465208), wk =   0.1666667
        k(    5) = (   0.3333333   0.1188241   0.0363755), wk =   0.3333333
        k(    6) = (   0.3333333   0.1188241  -0.1970899), wk =   0.3333333
        k(    7) = (   0.3333333  -0.2599517   0.0233201), wk =   0.3333333
        k(    8) = (   0.3333333  -0.2599517  -0.2101453), wk =   0.3333333

     Dense  grid:   397157 G-vectors     FFT dimensions: (  72,  96, 144)

     Smooth grid:   140357 G-vectors     FFT dimensions: (  45,  64, 100)

     Estimated max dynamical RAM per process >      55.91 MB

     Estimated total dynamical RAM >       2.18 GB

     Initial potential from superposition of free atoms

     starting charge  125.98896, renormalised to  126.00000
     Starting wfcs are  119 randomized atomic wfcs

     total cpu time spent up to now is        2.9 secs

     Self-consistent Calculation

     iteration #  1     ecut=    45.00 Ry     beta= 0.70
     Davidson diagonalization with overlap
     ethr =  1.00E-02,  avg # of iterations =  2.0

     total cpu time spent up to now is        6.2 secs

     total energy              =    -491.77860709 Ry
     Harris-Foulkes estimate   =    -493.64997085 Ry
     estimated scf accuracy    <       4.94550813 Ry

     iteration #  2     ecut=    45.00 Ry     beta= 0.70
     Davidson diagonalization with overlap
     ethr =  3.93E-03,  avg # of iterations =  2.0

     total cpu time spent up to now is        9.1 secs

     total energy              =    -492.54281337 Ry
     Harris-Foulkes estimate   =    -492.87277429 Ry
     estimated scf accuracy    <       1.66944804 Ry

     iteration #  3     ecut=    45.00 Ry     beta= 0.70
     Davidson diagonalization with overlap
     ethr =  1.32E-03,  avg # of iterations =  1.0

     total cpu time spent up to now is       11.5 secs

     total energy              =    -492.70148734 Ry
     Harris-Foulkes estimate   =    -492.73696764 Ry
     estimated scf accuracy    <       0.18858530 Ry

     iteration #  4     ecut=    45.00 Ry     beta= 0.70
     Davidson diagonalization with overlap
     ethr =  1.50E-04,  avg # of iterations =  3.0

     total cpu time spent up to now is       14.6 secs

     total energy              =    -492.71576868 Ry
     Harris-Foulkes estimate   =    -492.73191471 Ry
     estimated scf accuracy    <       0.04090013 Ry

     iteration #  5     ecut=    45.00 Ry     beta= 0.70
     Davidson diagonalization with overlap
     ethr =  3.25E-05,  avg # of iterations =  3.4

     total cpu time spent up to now is       18.0 secs

     total energy              =    -492.72286855 Ry
     Harris-Foulkes estimate   =    -492.72527551 Ry
     estimated scf accuracy    <       0.01951195 Ry

     iteration #  6     ecut=    45.00 Ry     beta= 0.70
     Davidson diagonalization with overlap
     ethr =  1.55E-05,  avg # of iterations =  7.5

     total cpu time spent up to now is       22.0 secs

     total energy              =    -492.72315425 Ry
     Harris-Foulkes estimate   =    -492.72392459 Ry
     estimated scf accuracy    <       0.00554804 Ry

     iteration #  7     ecut=    45.00 Ry     beta= 0.70
     Davidson diagonalization with overlap
     ethr =  4.40E-06,  avg # of iterations =  6.1

     total cpu time spent up to now is       25.7 secs

     total energy              =    -492.72339514 Ry
     Harris-Foulkes estimate   =    -492.72355307 Ry
     estimated scf accuracy    <       0.00072116 Ry

     iteration #  8     ecut=    45.00 Ry     beta= 0.70
     Davidson diagonalization with overlap
     ethr =  5.72E-07,  avg # of iterations =  5.1

     total cpu time spent up to now is       30.1 secs

     total energy              =    -492.72352692 Ry
     Harris-Foulkes estimate   =    -492.72363255 Ry
     estimated scf accuracy    <       0.00053648 Ry

     iteration #  9     ecut=    45.00 Ry     beta= 0.70
     Davidson diagonalization with overlap
     ethr =  4.26E-07,  avg # of iterations =  1.2

     total cpu time spent up to now is       32.5 secs

     total energy              =    -492.72356874 Ry
     Harris-Foulkes estimate   =    -492.72357552 Ry
     estimated scf accuracy    <       0.00004457 Ry

     iteration # 10     ecut=    45.00 Ry     beta= 0.70
     Davidson diagonalization with overlap
     ethr =  3.54E-08,  avg # of iterations =  3.4

     total cpu time spent up to now is       36.4 secs

     total energy              =    -492.72357780 Ry
     Harris-Foulkes estimate   =    -492.72358643 Ry
     estimated scf accuracy    <       0.00005828 Ry

     iteration # 11     ecut=    45.00 Ry     beta= 0.70
     Davidson diagonalization with overlap
     ethr =  3.54E-08,  avg # of iterations =  1.0

     total cpu time spent up to now is       38.7 secs

     total energy              =    -492.72357891 Ry
     Harris-Foulkes estimate   =    -492.72358063 Ry
     estimated scf accuracy    <       0.00000890 Ry

     iteration # 12     ecut=    45.00 Ry     beta= 0.70
     Davidson diagonalization with overlap
     ethr =  7.06E-09,  avg # of iterations =  3.0

     total cpu time spent up to now is       42.1 secs

     total energy              =    -492.72358082 Ry
     Harris-Foulkes estimate   =    -492.72358100 Ry
     estimated scf accuracy    <       0.00000190 Ry

     iteration # 13     ecut=    45.00 Ry     beta= 0.70
     Davidson diagonalization with overlap
     ethr =  1.51E-09,  avg # of iterations =  1.0

     total cpu time spent up to now is       44.4 secs

     total energy              =    -492.72358066 Ry
     Harris-Foulkes estimate   =    -492.72358090 Ry
     estimated scf accuracy    <       0.00000101 Ry

     iteration # 14     ecut=    45.00 Ry     beta= 0.70
     Davidson diagonalization with overlap
     ethr =  8.02E-10,  avg # of iterations =  2.1

     total cpu time spent up to now is       47.1 secs

     End of self-consistent calculation

          k = 0.0000 0.0000 0.0000 ( 17549 PWs)   bands (ev):

    -9.1312  -8.5842  -8.3256  -8.1804  -7.9948  -7.7649  -7.7216  -7.6138
    -7.5304  -7.4746  -7.3788  -7.1905  -6.8909  -6.7443  -1.0559  -0.6040
    -0.4837  -0.3981  -0.3156  -0.1104  -0.0701  -0.0163   0.1303   0.2909
     0.4286   0.4886   0.4977   0.6484   0.7690   0.8648   1.0058   1.1213
     1.1660   1.2157   1.2595   1.3458   1.4892   1.5082   1.6495   1.6947
     1.8352   1.9339   1.9603   2.0596   2.1413   2.3100   2.3645   2.6488
     2.8190   2.8969   3.0960   3.3983   3.4516   3.5539   3.6089   3.8002
     3.8328   4.0390   4.1209   4.4065   4.5726   4.6768   4.7654   4.8061
     5.1206   5.2248   5.3264   5.4621   5.7126   5.8849   6.2054   6.3818
     6.5939   6.6944   6.7588   6.8960

          k = 0.0000 0.0000-0.2335 ( 17554 PWs)   bands (ev):

    -9.0692  -8.7885  -8.1770  -8.1384  -7.9024  -7.8175  -7.7259  -7.6459
    -7.5755  -7.5126  -7.3601  -7.1922  -6.8748  -6.7481  -0.9741  -0.7781
    -0.6580  -0.2257  -0.1794  -0.0163   0.0277   0.1262   0.2042   0.2661
     0.2858   0.3868   0.4909   0.5966   0.6505   0.7482   0.9418   1.0235
     1.1406   1.2420   1.3439   1.3695   1.5092   1.5549   1.6238   1.7190
     1.8616   1.8970   1.9614   2.0338   2.1787   2.2734   2.4044   2.7041
     2.8522   2.9913   3.1270   3.2029   3.4443   3.5924   3.7060   3.8166
     4.0450   4.1153   4.1887   4.3131   4.4396   4.4864   4.7135   4.7719
     5.1148   5.2609   5.3740   5.4264   5.6245   5.9235   6.2947   6.3922
     6.5963   6.6836   6.7849   6.8212

          k = 0.0000-0.3788-0.0131 ( 17572 PWs)   bands (ev):

    -9.1051  -8.5647  -8.3111  -8.2205  -8.0207  -7.7799  -7.7197  -7.6102
    -7.5348  -7.4704  -7.3788  -7.1917  -6.9064  -6.7368  -1.0537  -0.4877
    -0.3907  -0.3651  -0.3067  -0.1391  -0.0660  -0.0158   0.1258   0.3087
     0.4071   0.4373   0.4909   0.6459   0.7726   0.8718   1.0371   1.1602
     1.1904   1.2029   1.2477   1.3517   1.4602   1.4985   1.6303   1.6798
     1.8188   1.9306   1.9792   2.0633   2.1336   2.2801   2.3720   2.5452
     2.7453   2.7906   2.9576   3.3462   3.4169   3.6498   3.7322   3.7552
     3.8543   4.0762   4.1180   4.4014   4.6197   4.6832   4.8049   4.8602
     5.1496   5.1883   5.2991   5.5034   5.7295   5.8670   6.2317   6.3866
     6.6108   6.7037   6.7555   6.8991

          k = 0.0000-0.3788-0.2465 ( 17572 PWs)   bands (ev):

    -9.0418  -8.7699  -8.2166  -8.1407  -7.9177  -7.8185  -7.7294  -7.6455
    -7.5762  -7.5121  -7.3603  -7.1939  -6.8896  -6.7407  -0.9745  -0.6640
    -0.6255  -0.2525  -0.1805  -0.0127   0.0857   0.1536   0.1715   0.2853
     0.3071   0.4110   0.4867   0.6256   0.6846   0.7370   0.9296   1.0132
     1.0907   1.2404   1.3226   1.3656   1.5029   1.5518   1.6302   1.7192
     1.8621   1.8987   1.9620   2.0512   2.1558   2.2178   2.3396   2.6301
     2.8063   2.9075   3.0731   3.1753   3.3355   3.5741   3.7117   3.9449
     4.1053   4.1214   4.1904   4.3040   4.4862   4.5462   4.7726   4.7793
     5.1258   5.2527   5.3869   5.4317   5.6437   5.8620   6.3445   6.4002
     6.6281   6.6879   6.7886   6.8481

          k = 0.3333 0.1188 0.0364 ( 17555 PWs)   bands (ev):

    -8.7783  -8.3768  -8.1574  -8.0963  -7.9949  -7.9578  -7.8096  -7.7582
    -7.6646  -7.5963  -7.4700  -7.3768  -6.9594  -6.8358  -0.8979  -0.7763
    -0.5425  -0.2375  -0.1462  -0.0798  -0.0268   0.0217   0.0967   0.2420
     0.3026   0.3692   0.5380   0.5845   0.7468   0.8860   0.9510   1.0766
     1.1918   1.3062   1.4524   1.5297   1.5610   1.7037   1.7496   1.8476
     1.9391   2.0332   2.0824   2.2232   2.2641   2.4033   2.5012   2.6630
     2.8384   2.9413   3.0854   3.1963   3.2956   3.4013   3.5142   3.6312
     3.7575   3.8562   3.9428   4.1085   4.3253   4.4471   4.5623   5.0254
     5.2061   5.2926   5.4740   5.6120   5.7040   5.8652   6.2820   6.4414
     6.6226   6.6936   6.8309   6.9445

          k = 0.3333 0.1188-0.1971 ( 17527 PWs)   bands (ev):

    -8.7371  -8.4868  -8.1362  -8.0695  -8.0233  -7.8998  -7.7989  -7.7191
    -7.6649  -7.6317  -7.4605  -7.4046  -6.9599  -6.8416  -0.8975  -0.7231
    -0.4856  -0.3180  -0.2315  -0.1080  -0.0902   0.0587   0.1275   0.2471
     0.3194   0.4645   0.5360   0.6507   0.7840   0.8675   0.9339   1.0644
     1.1765   1.2153   1.4000   1.4913   1.6257   1.6484   1.8012   1.8609
     1.9187   1.9583   2.1117   2.1848   2.2664   2.4282   2.5257   2.6504
     2.8925   2.9999   3.0754   3.1957   3.3355   3.3885   3.5604   3.6878
     3.7771   3.8286   4.0197   4.0479   4.1929   4.4425   4.5942   4.9990
     5.2100   5.3515   5.4400   5.5727   5.6737   5.8494   6.3022   6.4428
     6.6426   6.7030   6.8419   6.8964

          k = 0.3333-0.2600 0.0233 ( 17538 PWs)   bands (ev):

    -8.7646  -8.3628  -8.1504  -8.1115  -8.0063  -7.9663  -7.8131  -7.7546
    -7.6680  -7.5935  -7.4743  -7.3814  -6.9658  -6.8290  -0.9073  -0.7830
    -0.5068  -0.2331  -0.1064  -0.0729   0.0084   0.0349   0.0904   0.2287
     0.3374   0.3695   0.5439   0.5759   0.7742   0.8815   0.9634   1.0463
     1.1797   1.2937   1.4471   1.4789   1.5488   1.6739   1.7614   1.8279
     1.9331   2.0384   2.0983   2.1889   2.2697   2.3702   2.5036   2.6247
     2.8335   2.9355   3.0586   3.1950   3.3232   3.4370   3.4971   3.6010
     3.7751   3.8827   3.9405   4.1091   4.3267   4.4317   4.5650   5.0643
     5.2202   5.3575   5.5210   5.6216   5.7154   5.8119   6.2797   6.4413
     6.6154   6.7113   6.8447   6.9116

          k = 0.3333-0.2600-0.2101 ( 17542 PWs)   bands (ev):

    -8.7217  -8.4751  -8.1467  -8.0811  -8.0231  -7.9090  -7.7927  -7.7224
    -7.6701  -7.6260  -7.4642  -7.4081  -6.9670  -6.8362  -0.8991  -0.7219
    -0.4773  -0.2844  -0.2222  -0.1040  -0.0774   0.0500   0.1648   0.2426
     0.3090   0.5148   0.5744   0.6934   0.7760   0.8414   0.9317   1.0513
     1.1497   1.2082   1.3569   1.4604   1.5931   1.6389   1.7952   1.8598
     1.9145   1.9374   2.1085   2.1942   2.2767   2.4107   2.5185   2.6257
     2.8472   2.9973   3.0853   3.1998   3.3424   3.4191   3.4740   3.7041
     3.8005   3.8604   4.0015   4.0436   4.2072   4.4397   4.5998   5.0457
     5.2808   5.3544   5.4871   5.6029   5.6653   5.8082   6.2745   6.4421
     6.6449   6.7202   6.8347   6.8903

     the Fermi energy is     4.7875 ev

!    total energy              =    -492.72358074 Ry
     Harris-Foulkes estimate   =    -492.72358080 Ry
     estimated scf accuracy    <       0.00000008 Ry

     The total energy is the sum of the following terms:

     one-electron contribution =    -151.46576345 Ry
     hartree contribution      =     139.47653236 Ry
     xc contribution           =    -194.27436796 Ry
     ewald contribution        =    -286.46660255 Ry
     smearing contrib. (-TS)   =       0.00662086 Ry

     convergence has been achieved in  14 iterations

     Forces acting on atoms (cartesian axes, Ry/au):

     atom    1 type  1   force =    -0.00856885   -0.01888821    0.01074237
     atom    2 type  1   force =     0.01406739    0.01331463   -0.01060979
     atom    3 type  1   force =    -0.01354421    0.04108399   -0.00632500
     atom    4 type  1   force =     0.01512208   -0.03941144    0.01035280
     atom    5 type  1   force =    -0.00679372   -0.02224667   -0.01971831
     atom    6 type  1   force =     0.01577598    0.01804299    0.00143546
     atom    7 type  1   force =     0.01203707    0.05493329   -0.00446028
     atom    8 type  2   force =    -0.01300134   -0.01089251    0.00543387
     atom    9 type  2   force =    -0.00109749    0.00196698    0.00387094
     atom   10 type  2   force =    -0.01029565   -0.00448308    0.01961211
     atom   11 type  2   force =     0.00113482   -0.01057082   -0.00278611
     atom   12 type  2   force =     0.00407824    0.01456077   -0.00334074
     atom   13 type  2   force =     0.01616305    0.00008506   -0.01589955
     atom   14 type  2   force =    -0.00385430    0.02798071    0.01401420
     atom   15 type  2   force =     0.01143073   -0.00970994    0.00130494
     atom   16 type  2   force =     0.00666517   -0.01627564   -0.02763886
     atom   17 type  2   force =     0.01442918   -0.01500011    0.01577623
     atom   18 type  2   force =     0.00146098   -0.05920741    0.02309203
     atom   19 type  2   force =    -0.02359362   -0.01612128   -0.00186907
     atom   20 type  2   force =    -0.01875350    0.05221134   -0.01780115
     atom   21 type  2   force =    -0.01286199   -0.00137264    0.00481390

     Total force =     0.150557     Total SCF correction =     0.000468
 
     init_run     :      2.09s CPU      2.18s WALL (       1 calls)
     electrons    :     43.30s CPU     44.16s WALL (       1 calls)
     forces       :      1.13s CPU      1.15s WALL (       1 calls)

     Called by init_run:
     wfcinit      :      1.12s CPU      1.16s WALL (       1 calls)
     potinit      :      0.26s CPU      0.26s WALL (       1 calls)
     hinit0       :      0.36s CPU      0.38s WALL (       1 calls)

     Called by electrons:
     c_bands      :     33.11s CPU     33.66s WALL (      14 calls)
     sum_band     :      7.19s CPU      7.38s WALL (      14 calls)
     v_of_rho     :      0.56s CPU      0.63s WALL (      15 calls)
     newd         :      2.00s CPU      2.04s WALL (      15 calls)
     mix_rho      :      0.50s CPU      0.51s WALL (      14 calls)

     Called by c_bands:
     init_us_2    :      0.99s CPU      1.00s WALL (     240 calls)
     cegterg      :     30.39s CPU     30.92s WALL (     112 calls)

     Called by sum_band:
     sum_band:bec :      0.06s CPU      0.06s WALL (     112 calls)
     addusdens    :      3.30s CPU      3.35s WALL (      14 calls)

     Called by *egterg:
     h_psi        :     15.86s CPU     16.27s WALL (     455 calls)
     s_psi        :      2.44s CPU      2.44s WALL (     455 calls)
     g_psi        :      0.06s CPU      0.06s WALL (     335 calls)
     cdiaghg      :      8.09s CPU      8.18s WALL (     447 calls)

     Called by h_psi:
     h_psi:pot    :     15.76s CPU     16.16s WALL (     455 calls)
     h_psi:calbec :      2.72s CPU      2.85s WALL (     455 calls)
     vloc_psi     :     10.62s CPU     10.90s WALL (     455 calls)
     add_vuspsi   :      2.40s CPU      2.41s WALL (     455 calls)

     General routines
     calbec       :      3.88s CPU      4.08s WALL (     599 calls)
     fft          :      0.42s CPU      0.48s WALL (     204 calls)
     ffts         :      0.24s CPU      0.24s WALL (     378 calls)
     fftw         :     11.96s CPU     12.28s WALL (   51562 calls)
     interpolate  :      0.05s CPU      0.05s WALL (      15 calls)
 
     Parallel routines
     fft_scatt_xy :      1.17s CPU      1.20s WALL (   52144 calls)
     fft_scatt_yz :      6.86s CPU      7.10s WALL (   52144 calls)
 
     PWSCF        :     47.26s CPU     48.28s WALL

 
   This run was terminated on:  22:42:33  23Dec2021            

=------------------------------------------------------------------------------=
   JOB DONE.
=------------------------------------------------------------------------------=
