
     Program PWSCF v.6.4 starts on 23Dec2021 at 23:51:42 

     This program is part of the open-source Quantum ESPRESSO suite
     for quantum simulation of materials; please cite
         "P. Giannozzi et al., J. Phys.:Condens. Matter 21 395502 (2009);
         "P. Giannozzi et al., J. Phys.:Condens. Matter 29 465901 (2017);
          URL http://www.quantum-espresso.org", 
     in publications or presentations arising from this work. More details at
     http://www.quantum-espresso.org/quote

     Parallel version (MPI), running on    40 processors

     MPI processes distributed on     1 nodes
     R & G space division:  proc/nbgrp/npool/nimage =      40
     Waiting for input...
     Reading input from standard input
Warning: card    &IONS ignored
Warning: card      ION_DYNAMICS = 'BFGS' ignored
Warning: card   / ignored
Warning: card    &CELL ignored
Warning: card      CELL_DYNAMICS = 'BFGS', ignored
Warning: card    / ignored

     Current dimensions of program PWSCF are:
     Max number of different atomic species (ntypx) = 10
     Max number of k-points (npk) =  40000
     Max angular momentum in pseudopotentials (lmaxx) =  3

     Subspace diagonalization in iterative solution of the eigenvalue problem:
     one sub-group per band group will be used
     scalapack distributed-memory algorithm (size of sub-group:  4*  4 procs)

 
     Parallelization info
     --------------------
     sticks:   dense  smooth     PW     G-vecs:    dense   smooth      PW
     Min         206     103     28                14947     5286     746
     Max         207     104     29                14950     5291     749
     Sum        8247    4131   1123               597935   211493   29909
 


     bravais-lattice index     =            0
     lattice parameter (alat)  =      15.5606  a.u.
     unit-cell volume          =    5183.9312 (a.u.)^3
     number of atoms/cell      =           33
     number of atomic types    =            2
     number of electrons       =       198.00
     number of Kohn-Sham states=          119
     kinetic-energy cutoff     =      45.0000  Ry
     charge density cutoff     =     360.0000  Ry
     convergence threshold     =      1.0E-06
     mixing beta               =       0.7000
     number of iterations used =            8  local-TF  mixing
     Exchange-correlation      = SLA PW GGX GGC ( 1  4  2  2 0 0)

     celldm(1)=  15.560613  celldm(2)=   0.000000  celldm(3)=   0.000000
     celldm(4)=   0.000000  celldm(5)=   0.000000  celldm(6)=   0.000000

     crystal axes: (cart. coord. in units of alat)
               a(1) = (   1.000000   0.000000   0.000000 )  
               a(2) = (   0.376761   1.189458   0.000000 )  
               a(3) = (   0.094400   0.512467   1.156725 )  

     reciprocal axes: (cart. coord. in units 2 pi/alat)
               b(1) = (  1.000000 -0.316750  0.058721 )  
               b(2) = (  0.000000  0.840719 -0.372466 )  
               b(3) = (  0.000000  0.000000  0.864510 )  


     PseudoPot. # 1 for Mo read from file:
     ~/pseudo/Mo.pw91-n-van.UPF
     MD5 check sum: Not computed, couldn't open file
     Pseudo is Ultrasoft + core correction, Zval =  6.0
     Generated by new atomic code, or converted to UPF format
     Using radial grid of  965 points,  3 beta functions with: 
                l(1) =   1
                l(2) =   2
                l(3) =   2
     Q(r) pseudized with  8 coefficients,  rinner =    1.000   1.000   1.000
                                                       1.200   1.200

     PseudoPot. # 2 for S  read from file:
     ~/pseudo/S.pw91-van_ak.UPF
     MD5 check sum: Not computed, couldn't open file
     Pseudo is Ultrasoft, Zval =  6.0
     Generated by new atomic code, or converted to UPF format
     Using radial grid of  811 points,  6 beta functions with: 
                l(1) =   0
                l(2) =   0
                l(3) =   1
                l(4) =   1
                l(5) =   2
                l(6) =   2
     Q(r) pseudized with  8 coefficients,  rinner =    1.100   1.100   1.100
                                                       1.100   1.100

     atomic species   valence    mass     pseudopotential
        Mo             6.00    95.50000     Mo( 1.00)
        S              6.00    32.06500     S ( 1.00)

     No symmetry found



   Cartesian axes

     site n.     atom                  positions (alat units)
         1           Mo  tau(   1) = (   0.6857122   0.8581655   0.1649540  )
         2           Mo  tau(   2) = (   0.2044006   0.2894754   0.3059354  )
         3           Mo  tau(   3) = (   1.2969399   1.2375406   1.1379202  )
         4           Mo  tau(   4) = (   0.7414585   1.1398032   0.9907155  )
         5           Mo  tau(   5) = (   0.4793393   1.1234876   0.2382548  )
         6           Mo  tau(   6) = (   1.0840372   1.1995385   0.8387029  )
         7           Mo  tau(   7) = (   0.8809369   0.3668804   0.2899102  )
         8           Mo  tau(   8) = (   0.5408978   0.3845706   0.2533809  )
         9           Mo  tau(   9) = (   1.2660867   1.3190408   0.5629326  )
        10           Mo  tau(  10) = (   0.8235050   1.1947300   0.1933639  )
        11           Mo  tau(  11) = (   0.4100998   1.0982472   0.8330884  )
        12           S   tau(  12) = (   1.0567862   1.3384209   0.3624361  )
        13           S   tau(  13) = (   0.7217457   0.5784077   0.4091713  )
        14           S   tau(  14) = (   1.1019063   0.5585557   0.2159217  )
        15           S   tau(  15) = (   0.3826050   0.4447565   0.4836933  )
        16           S   tau(  16) = (   1.0291557   0.3879825   0.5514497  )
        17           S   tau(  17) = (   0.6127033   0.9018349   0.8682209  )
        18           S   tau(  18) = (   1.0830549   1.4692971   0.7332650  )
        19           S   tau(  19) = (   0.8389442   1.1510218   0.7127058  )
        20           S   tau(  20) = (   0.4848251   0.8729369   0.3842822  )
        21           S   tau(  21) = (   1.2204979   1.0323236   0.6196969  )
        22           S   tau(  22) = (   0.5550982   1.2483655   0.4939037  )
        23           S   tau(  23) = (   0.8891154   0.9424211   0.3458383  )
        24           S   tau(  24) = (   1.2108510   0.9859293   1.0046477  )
        25           S   tau(  25) = (   1.2289480   0.9975391   0.1293971  )
        26           S   tau(  26) = (   0.5185693   1.3415954   0.9378667  )
        27           S   tau(  27) = (   0.9862504   1.2931449   1.1074340  )
        28           S   tau(  28) = (   0.7450658   0.4082642   0.0232584  )
        29           S   tau(  29) = (   1.0044550   0.1760159   0.0966140  )
        30           S   tau(  30) = (   0.4811162   0.6464617   0.0962026  )
        31           S   tau(  31) = (   0.3649749   0.2625337   0.0603785  )
        32           S   tau(  32) = (   0.6327139   1.0832293   0.0010965  )
        33           S   tau(  33) = (   1.0520536   1.1405474   0.0171248  )

     number of k points=     8  Marzari-Vanderbilt smearing, width (Ry)=  0.0200
                       cart. coord. in units 2pi/alat
        k(    1) = (   0.0000000   0.0000000   0.0000000), wk =   0.2500000
        k(    2) = (   0.0000000   0.0000000  -0.4322549), wk =   0.2500000
        k(    3) = (   0.0000000  -0.4203596   0.1862330), wk =   0.2500000
        k(    4) = (   0.0000000  -0.4203596  -0.2460219), wk =   0.2500000
        k(    5) = (  -0.5000000   0.1583752  -0.0293604), wk =   0.2500000
        k(    6) = (  -0.5000000   0.1583752  -0.4616153), wk =   0.2500000
        k(    7) = (  -0.5000000  -0.2619844   0.1568726), wk =   0.2500000
        k(    8) = (  -0.5000000  -0.2619844  -0.2753823), wk =   0.2500000

     Dense  grid:   597935 G-vectors     FFT dimensions: (  96, 120, 120)

     Smooth grid:   211493 G-vectors     FFT dimensions: (  72,  90,  90)

     Estimated max dynamical RAM per process >      97.52 MB

     Estimated total dynamical RAM >       3.81 GB

     Initial potential from superposition of free atoms

     starting charge  197.98265, renormalised to  198.00000
     Starting wfcs are  187 randomized atomic wfcs

     total cpu time spent up to now is        5.3 secs

     Self-consistent Calculation

     iteration #  1     ecut=    45.00 Ry     beta= 0.70
     Davidson diagonalization with overlap
     ethr =  1.00E-02,  avg # of iterations =  2.0

     total cpu time spent up to now is       13.6 secs

     total energy              =    -772.28915354 Ry
     Harris-Foulkes estimate   =    -775.19583854 Ry
     estimated scf accuracy    <       7.94259886 Ry

     iteration #  2     ecut=    45.00 Ry     beta= 0.70
     Davidson diagonalization with overlap
     ethr =  4.01E-03,  avg # of iterations =  2.0

     total cpu time spent up to now is       21.3 secs

     total energy              =    -773.44879298 Ry
     Harris-Foulkes estimate   =    -774.19141391 Ry
     estimated scf accuracy    <       4.03375070 Ry

     iteration #  3     ecut=    45.00 Ry     beta= 0.70
     Davidson diagonalization with overlap
     ethr =  2.04E-03,  avg # of iterations =  1.2

     total cpu time spent up to now is       27.4 secs

     total energy              =    -773.79614101 Ry
     Harris-Foulkes estimate   =    -773.87608788 Ry
     estimated scf accuracy    <       0.58117014 Ry

     iteration #  4     ecut=    45.00 Ry     beta= 0.70
     Davidson diagonalization with overlap
     ethr =  2.94E-04,  avg # of iterations =  2.5

     total cpu time spent up to now is       34.1 secs

     total energy              =    -773.84222057 Ry
     Harris-Foulkes estimate   =    -773.86672517 Ry
     estimated scf accuracy    <       0.11227211 Ry

     iteration #  5     ecut=    45.00 Ry     beta= 0.70
     Davidson diagonalization with overlap
     ethr =  5.67E-05,  avg # of iterations =  4.2

     total cpu time spent up to now is       43.1 secs

     total energy              =    -773.85467575 Ry
     Harris-Foulkes estimate   =    -773.86858707 Ry
     estimated scf accuracy    <       0.06396208 Ry

     iteration #  6     ecut=    45.00 Ry     beta= 0.70
     Davidson diagonalization with overlap
     ethr =  3.23E-05,  avg # of iterations =  5.9

     total cpu time spent up to now is       51.1 secs

     total energy              =    -773.86071443 Ry
     Harris-Foulkes estimate   =    -773.86267883 Ry
     estimated scf accuracy    <       0.01816385 Ry

     iteration #  7     ecut=    45.00 Ry     beta= 0.70
     Davidson diagonalization with overlap
     ethr =  9.17E-06,  avg # of iterations = 11.8

     total cpu time spent up to now is       61.8 secs

     total energy              =    -773.86153376 Ry
     Harris-Foulkes estimate   =    -773.86204230 Ry
     estimated scf accuracy    <       0.00287976 Ry

     iteration #  8     ecut=    45.00 Ry     beta= 0.70
     Davidson diagonalization with overlap
     ethr =  1.45E-06,  avg # of iterations =  9.8

     total cpu time spent up to now is       72.5 secs

     total energy              =    -773.86166438 Ry
     Harris-Foulkes estimate   =    -773.86187475 Ry
     estimated scf accuracy    <       0.00059317 Ry

     iteration #  9     ecut=    45.00 Ry     beta= 0.70
     Davidson diagonalization with overlap
     ethr =  3.00E-07,  avg # of iterations =  3.1

     total cpu time spent up to now is       80.2 secs

     total energy              =    -773.86171642 Ry
     Harris-Foulkes estimate   =    -773.86177797 Ry
     estimated scf accuracy    <       0.00026839 Ry

     iteration # 10     ecut=    45.00 Ry     beta= 0.70
     Davidson diagonalization with overlap
     ethr =  1.36E-07,  avg # of iterations =  1.8

     total cpu time spent up to now is       86.5 secs

     total energy              =    -773.86172232 Ry
     Harris-Foulkes estimate   =    -773.86174011 Ry
     estimated scf accuracy    <       0.00004989 Ry

     iteration # 11     ecut=    45.00 Ry     beta= 0.70
     Davidson diagonalization with overlap
     ethr =  2.52E-08,  avg # of iterations =  3.8

     total cpu time spent up to now is       94.7 secs

     total energy              =    -773.86172711 Ry
     Harris-Foulkes estimate   =    -773.86173338 Ry
     estimated scf accuracy    <       0.00002454 Ry

     iteration # 12     ecut=    45.00 Ry     beta= 0.70
     Davidson diagonalization with overlap
     ethr =  1.24E-08,  avg # of iterations =  2.0

     total cpu time spent up to now is      101.1 secs

     total energy              =    -773.86172798 Ry
     Harris-Foulkes estimate   =    -773.86172944 Ry
     estimated scf accuracy    <       0.00000524 Ry

     iteration # 13     ecut=    45.00 Ry     beta= 0.70
     Davidson diagonalization with overlap
     ethr =  2.64E-09,  avg # of iterations =  3.2

     total cpu time spent up to now is      108.6 secs

     End of self-consistent calculation

          k = 0.0000 0.0000 0.0000 ( 26433 PWs)   bands (ev):

    -9.5538  -8.7049  -8.1850  -8.0278  -7.9377  -7.8836  -7.8393  -7.5982
    -7.4474  -7.3577  -7.3051  -7.3019  -7.1732  -7.0810  -7.0162  -6.8870
    -6.8572  -6.7459  -6.7003  -6.5979  -6.4863  -5.7163  -0.5081  -0.4296
    -0.3046  -0.2164  -0.1204  -0.0887   0.0410   0.0795   0.1133   0.2264
     0.3599   0.4169   0.4650   0.5757   0.6130   0.6820   0.7245   0.8207
     0.9224   0.9894   1.0167   1.0931   1.1823   1.2265   1.2964   1.3412
     1.4584   1.5910   1.6232   1.6627   1.7580   1.8305   1.8835   1.9313
     1.9425   2.0451   2.0600   2.1159   2.2302   2.2888   2.3592   2.3932
     2.4315   2.4914   2.6713   2.6997   2.7574   2.8132   2.9195   2.9313
     3.0448   3.1321   3.1940   3.2873   3.3537   3.4829   3.6597   3.7119
     3.8042   3.8441   3.8962   4.0499   4.1104   4.1557   4.2114   4.2840
     4.3261   4.4074   4.4995   4.6312   4.7568   4.8303   4.9559   5.0574
     5.1264   5.2100   5.3153   5.4198   5.5033   5.6042   5.6846   5.8586
     5.8874   6.0055   6.0968   6.2752   6.3219   6.5052   6.6132   6.7497
     6.8396   6.8797   6.9236   6.9986   7.1881   7.1937   7.2296

          k = 0.0000 0.0000-0.4323 ( 26450 PWs)   bands (ev):

    -9.5504  -8.6402  -8.3615  -8.0379  -7.9164  -7.8824  -7.8016  -7.5119
    -7.4528  -7.3628  -7.3338  -7.2121  -7.1858  -7.0681  -7.0315  -6.8915
    -6.8703  -6.8174  -6.6458  -6.6176  -6.4946  -5.7143  -0.5152  -0.4189
    -0.3493  -0.2627  -0.1905  -0.0378  -0.0110   0.0605   0.1996   0.2354
     0.3117   0.3863   0.4763   0.5192   0.6074   0.6995   0.8094   0.8725
     0.8908   0.9387   1.0874   1.1307   1.2343   1.2834   1.3170   1.4487
     1.4963   1.5319   1.5909   1.6810   1.7098   1.8114   1.8407   1.8870
     2.0193   2.0362   2.1191   2.1716   2.2020   2.2482   2.3302   2.4349
     2.5165   2.5634   2.5854   2.7101   2.7717   2.7911   2.8284   2.9364
     2.9640   3.1633   3.2432   3.2711   3.3827   3.4861   3.6130   3.6564
     3.7405   3.8294   3.8834   3.9047   4.0110   4.0986   4.1860   4.3616
     4.3966   4.4997   4.5930   4.6497   4.7663   4.8248   4.9723   5.0089
     5.0807   5.2801   5.3610   5.4017   5.5302   5.6379   5.6910   5.7653
     5.8907   5.9376   6.1197   6.2767   6.3627   6.5147   6.5623   6.6563
     6.7856   6.8795   6.9465   7.0573   7.1174   7.1760   7.2758

          k = 0.0000-0.4204 0.1862 ( 26450 PWs)   bands (ev):

    -9.5420  -8.6272  -8.4072  -8.0664  -8.0002  -7.8701  -7.6122  -7.5141
    -7.4798  -7.3671  -7.3282  -7.2592  -7.2224  -7.0575  -6.9635  -6.9075
    -6.8552  -6.7746  -6.6888  -6.6136  -6.5259  -5.7174  -0.5551  -0.5025
    -0.3853  -0.2363  -0.1573  -0.0754  -0.0132   0.1227   0.1776   0.2500
     0.2653   0.4806   0.5112   0.6013   0.6505   0.7466   0.7817   0.8577
     0.9472   0.9680   1.1015   1.1662   1.1881   1.2413   1.3530   1.4205
     1.4492   1.4867   1.5786   1.6506   1.6841   1.7194   1.8392   1.9054
     2.0293   2.0484   2.0950   2.1325   2.2080   2.2622   2.3316   2.3980
     2.4464   2.5630   2.5782   2.5962   2.7376   2.8393   2.9140   2.9673
     3.0722   3.2070   3.2593   3.3956   3.4344   3.5183   3.5454   3.5879
     3.7199   3.7800   3.8492   3.8762   4.1314   4.1912   4.2903   4.3352
     4.3632   4.4451   4.5527   4.5901   4.7523   4.8620   4.9192   5.0023
     5.1399   5.2283   5.3330   5.4566   5.5235   5.6338   5.7273   5.8129
     5.8669   5.9938   6.0945   6.2680   6.3187   6.5198   6.6056   6.6802
     6.7551   6.8763   6.9553   7.0631   7.1389   7.1520   7.2222

          k = 0.0000-0.4204-0.2460 ( 26458 PWs)   bands (ev):

    -9.5397  -8.6927  -8.2708  -8.0618  -8.0161  -7.8756  -7.7086  -7.5776
    -7.4552  -7.3582  -7.3039  -7.2586  -7.1766  -7.0602  -6.9928  -6.9000
    -6.8838  -6.7258  -6.6867  -6.6078  -6.5247  -5.7165  -0.5478  -0.4900
    -0.4262  -0.2555  -0.1867  -0.1018  -0.0481   0.0699   0.1713   0.3090
     0.3754   0.5053   0.5211   0.6039   0.6335   0.7064   0.7426   0.7697
     0.8907   0.9906   1.0640   1.1353   1.2109   1.3157   1.4053   1.4155
     1.4674   1.5696   1.5983   1.6227   1.7198   1.7949   1.8806   1.9564
     1.9877   2.0816   2.1817   2.2014   2.2219   2.2537   2.3330   2.3831
     2.4785   2.5059   2.5612   2.6870   2.7483   2.8350   2.8868   2.9212
     2.9929   3.0297   3.1595   3.2850   3.4024   3.5274   3.5473   3.5968
     3.7312   3.8647   3.9429   3.9789   4.0349   4.1216   4.2168   4.2853
     4.3743   4.4096   4.5630   4.7019   4.8342   4.8989   4.9438   4.9994
     5.1380   5.2584   5.3401   5.4271   5.4561   5.5512   5.7238   5.7978
     5.8857   5.9539   6.0270   6.3178   6.3757   6.4520   6.6038   6.6748
     6.7675   6.8723   7.0256   7.0682   7.1348   7.1747   7.2447

          k =-0.5000 0.1584-0.0294 ( 26414 PWs)   bands (ev):

    -9.5238  -8.5213  -8.3878  -8.0947  -8.0276  -7.9275  -7.6835  -7.5329
    -7.4964  -7.4419  -7.3782  -7.2596  -7.1728  -7.0867  -7.0335  -6.9718
    -6.8205  -6.7111  -6.6295  -6.5598  -6.4051  -5.7141  -0.5705  -0.4399
    -0.2886  -0.2534  -0.1688  -0.0616   0.0419   0.1207   0.1959   0.2713
     0.3497   0.4445   0.5699   0.6028   0.6576   0.7721   0.7928   0.8531
     0.8623   0.9448   0.9840   1.1231   1.1460   1.2021   1.2239   1.4205
     1.4621   1.5144   1.6148   1.6636   1.6979   1.7645   1.8198   1.9270
     1.9530   1.9742   2.0827   2.1193   2.1630   2.2039   2.2951   2.4069
     2.4332   2.4836   2.5741   2.6553   2.6948   2.8127   2.9312   2.9720
     3.0635   3.1398   3.2633   3.3091   3.3762   3.4748   3.6032   3.6486
     3.7619   3.8056   3.8638   4.0001   4.0438   4.1919   4.2461   4.3478
     4.4324   4.5497   4.6109   4.6961   4.7815   4.8608   5.0549   5.0677
     5.1574   5.2379   5.4019   5.4897   5.5130   5.5683   5.6642   5.6970
     5.8740   5.9098   6.1276   6.1538   6.2591   6.4228   6.6105   6.6568
     6.7702   6.9200   6.9561   7.0905   7.1024   7.1510   7.2111

          k =-0.5000 0.1584-0.4616 ( 26434 PWs)   bands (ev):

    -9.5222  -8.4951  -8.3443  -8.1759  -8.0842  -7.9396  -7.6649  -7.5406
    -7.5124  -7.4188  -7.2794  -7.2743  -7.1309  -7.1157  -7.0427  -6.9388
    -6.8070  -6.7596  -6.6476  -6.5662  -6.4042  -5.7139  -0.5695  -0.4008
    -0.3304  -0.2229  -0.2022  -0.0477   0.0049   0.0774   0.2217   0.3386
     0.3630   0.4499   0.4893   0.5880   0.6533   0.7010   0.7588   0.8569
     0.8801   0.9348   1.0350   1.1086   1.1582   1.2686   1.3166   1.3813
     1.4807   1.5251   1.5779   1.6252   1.7080   1.7863   1.8157   1.8803
     1.9531   2.0228   2.0553   2.0907   2.1943   2.2663   2.3152   2.3924
     2.4699   2.5589   2.5676   2.6564   2.7103   2.8015   2.8688   2.9861
     3.0229   3.0657   3.1786   3.2070   3.3766   3.5648   3.5781   3.7197
     3.7578   3.7757   3.9393   3.9922   4.0534   4.1156   4.2932   4.3433
     4.5215   4.5975   4.6705   4.7690   4.7895   4.8095   4.9842   5.0709
     5.1501   5.3033   5.4047   5.4810   5.5231   5.5765   5.6594   5.7594
     5.7992   5.9519   6.0324   6.1631   6.2455   6.4398   6.5383   6.6402
     6.6978   6.8249   7.0055   7.0371   7.0879   7.1934   7.2503

          k =-0.5000-0.2620 0.1569 ( 26432 PWs)   bands (ev):

    -9.5228  -8.4473  -8.3529  -8.2400  -8.1054  -7.8830  -7.7065  -7.5123
    -7.4582  -7.3916  -7.3529  -7.2738  -7.1384  -7.1228  -7.0574  -6.9581
    -6.8054  -6.7661  -6.6493  -6.5011  -6.4104  -5.7163  -0.5784  -0.4250
    -0.3853  -0.2844  -0.1959  -0.1501  -0.0848   0.1492   0.2900   0.3231
     0.3676   0.4806   0.5008   0.6066   0.6984   0.8178   0.8243   0.8965
     0.9594   0.9959   1.0392   1.1445   1.2373   1.2697   1.2789   1.3377
     1.3737   1.4565   1.5444   1.5532   1.5910   1.7152   1.8205   1.8716
     1.9459   2.0159   2.0865   2.2360   2.2453   2.3380   2.3838   2.4054
     2.4139   2.4835   2.5708   2.6852   2.7671   2.8440   2.9058   2.9638
     3.0277   3.0737   3.2374   3.2893   3.3663   3.4663   3.5544   3.6478
     3.6877   3.7705   3.8288   3.8610   4.1379   4.1670   4.2237   4.3401
     4.4404   4.5341   4.7344   4.7367   4.7735   4.8552   4.9094   5.0892
     5.1919   5.2778   5.3056   5.4879   5.5443   5.6429   5.6983   5.8325
     5.8870   5.9543   6.0302   6.1763   6.3113   6.3570   6.5372   6.6374
     6.7848   6.8054   6.9636   7.0385   7.1326   7.1815   7.1848

          k =-0.5000-0.2620-0.2754 ( 26422 PWs)   bands (ev):

    -9.5213  -8.4596  -8.3836  -8.2430  -8.0076  -7.8790  -7.7037  -7.5656
    -7.4786  -7.4434  -7.3301  -7.2700  -7.1588  -7.0905  -7.0432  -6.9655
    -6.8290  -6.7235  -6.6266  -6.5214  -6.4105  -5.7152  -0.5493  -0.4153
    -0.3956  -0.2323  -0.1713  -0.1131  -0.0386   0.0326   0.2124   0.2475
     0.3901   0.4673   0.5313   0.5727   0.6530   0.7442   0.8433   0.8726
     0.9398   1.0203   1.0375   1.1208   1.1382   1.3134   1.3194   1.4070
     1.4136   1.4798   1.5703   1.6137   1.6756   1.7307   1.8308   1.9418
     1.9999   2.0576   2.1154   2.1732   2.2066   2.2720   2.3299   2.3845
     2.4551   2.5019   2.5327   2.6170   2.6872   2.7788   2.8334   3.0097
     3.0537   3.1391   3.1914   3.2711   3.3719   3.4993   3.5332   3.6365
     3.7350   3.8061   3.8607   3.9862   4.0266   4.2009   4.2265   4.3858
     4.4369   4.5231   4.6059   4.7424   4.8425   4.8999   4.9613   5.0846
     5.2510   5.2721   5.3993   5.4340   5.5619   5.6183   5.6707   5.7746
     5.9131   5.9529   6.0648   6.1549   6.3133   6.4096   6.5508   6.6903
     6.7507   6.7925   6.8430   6.9761   7.0738   7.1460   7.2202

     the Fermi energy is     5.3950 ev

!    total energy              =    -773.86172797 Ry
     Harris-Foulkes estimate   =    -773.86172876 Ry
     estimated scf accuracy    <       0.00000088 Ry

     The total energy is the sum of the following terms:

     one-electron contribution =    -218.08820559 Ry
     hartree contribution      =     212.56834813 Ry
     xc contribution           =    -305.12880820 Ry
     ewald contribution        =    -463.21132796 Ry
     smearing contrib. (-TS)   =      -0.00173436 Ry

     convergence has been achieved in  13 iterations

     Forces acting on atoms (cartesian axes, Ry/au):

     atom    1 type  1   force =     0.00403800    0.00094255    0.05915735
     atom    2 type  1   force =     0.02151943   -0.04114979    0.02041695
     atom    3 type  1   force =    -0.02175226   -0.02700495   -0.01406080
     atom    4 type  1   force =     0.02112519    0.00083148   -0.00106425
     atom    5 type  1   force =    -0.01325260   -0.01275228    0.02771822
     atom    6 type  1   force =    -0.02743043    0.02845029   -0.04587866
     atom    7 type  1   force =     0.02379287    0.04208731    0.03312575
     atom    8 type  1   force =    -0.04132190   -0.01549142    0.01894671
     atom    9 type  1   force =    -0.05853313    0.02552307    0.02195418
     atom   10 type  1   force =     0.02917626    0.00873991    0.07660505
     atom   11 type  1   force =     0.02926262   -0.01922688    0.00297159
     atom   12 type  2   force =    -0.00390035   -0.02856196   -0.00650647
     atom   13 type  2   force =    -0.00389737   -0.00153158   -0.04129539
     atom   14 type  2   force =     0.01740591    0.01364293    0.00477838
     atom   15 type  2   force =     0.01654076   -0.00523844   -0.03039849
     atom   16 type  2   force =    -0.00491899   -0.00302059   -0.03683591
     atom   17 type  2   force =    -0.02766263    0.02757874    0.01178872
     atom   18 type  2   force =     0.04961830   -0.01871552    0.01432576
     atom   19 type  2   force =    -0.00439838   -0.02000491    0.03110284
     atom   20 type  2   force =     0.01472855    0.02471891   -0.02172459
     atom   21 type  2   force =    -0.00005827    0.01607845    0.02121892
     atom   22 type  2   force =     0.01268979   -0.00171588   -0.02506920
     atom   23 type  2   force =    -0.01559462    0.02205209   -0.03595482
     atom   24 type  2   force =     0.01338410    0.00820701   -0.01081970
     atom   25 type  2   force =    -0.01710393   -0.00778044    0.00383501
     atom   26 type  2   force =    -0.00663960   -0.01572887    0.01133037
     atom   27 type  2   force =     0.01751952    0.00475635   -0.00095364
     atom   28 type  2   force =    -0.01985296   -0.00613080   -0.01007870
     atom   29 type  2   force =     0.00344457   -0.00327176    0.00844418
     atom   30 type  2   force =    -0.02577257   -0.01316153   -0.01428579
     atom   31 type  2   force =     0.01222947    0.00107406   -0.01269576
     atom   32 type  2   force =     0.01029173    0.01026858   -0.02830678
     atom   33 type  2   force =    -0.00467709    0.00553588   -0.03179103

     Total force =     0.230645     Total SCF correction =     0.001680
 
     init_run     :      4.47s CPU      4.60s WALL (       1 calls)
     electrons    :    101.20s CPU    103.28s WALL (       1 calls)
     forces       :      2.26s CPU      2.30s WALL (       1 calls)

     Called by init_run:
     wfcinit      :      3.03s CPU      3.10s WALL (       1 calls)
     potinit      :      0.39s CPU      0.39s WALL (       1 calls)
     hinit0       :      0.55s CPU      0.57s WALL (       1 calls)

     Called by electrons:
     c_bands      :     83.29s CPU     84.35s WALL (      13 calls)
     sum_band     :     13.79s CPU     14.50s WALL (      13 calls)
     v_of_rho     :      0.66s CPU      0.70s WALL (      14 calls)
     newd         :      2.62s CPU      2.83s WALL (      14 calls)
     mix_rho      :      0.89s CPU      0.96s WALL (      13 calls)

     Called by c_bands:
     init_us_2    :      1.31s CPU      1.32s WALL (     224 calls)
     cegterg      :     77.82s CPU     78.84s WALL (     104 calls)

     Called by sum_band:
     sum_band:bec :      0.14s CPU      0.15s WALL (     104 calls)
     addusdens    :      3.60s CPU      4.07s WALL (      13 calls)

     Called by *egterg:
     h_psi        :     44.10s CPU     44.89s WALL (     538 calls)
     s_psi        :      6.73s CPU      6.74s WALL (     538 calls)
     g_psi        :      0.13s CPU      0.13s WALL (     426 calls)
     cdiaghg      :     17.66s CPU     17.87s WALL (     530 calls)

     Called by h_psi:
     h_psi:pot    :     43.80s CPU     44.58s WALL (     538 calls)
     h_psi:calbec :      7.51s CPU      7.74s WALL (     538 calls)
     vloc_psi     :     29.45s CPU     29.98s WALL (     538 calls)
     add_vuspsi   :      6.83s CPU      6.85s WALL (     538 calls)

     General routines
     calbec       :     11.21s CPU     11.56s WALL (     674 calls)
     fft          :      0.50s CPU      0.55s WALL (     191 calls)
     ffts         :      0.48s CPU      0.54s WALL (     449 calls)
     fftw         :     32.77s CPU     33.36s WALL (   72510 calls)
     interpolate  :      0.06s CPU      0.06s WALL (      14 calls)
 
     Parallel routines
     fft_scatt_xy :      3.06s CPU      3.11s WALL (   73150 calls)
     fft_scatt_yz :     13.21s CPU     13.54s WALL (   73150 calls)
 
     PWSCF        :   1m48.63s CPU   1m50.99s WALL

 
   This run was terminated on:  23:53:33  23Dec2021            

=------------------------------------------------------------------------------=
   JOB DONE.
=------------------------------------------------------------------------------=
