
     Program PWSCF v.6.4 starts on 14Oct2021 at 10: 6:42 

     This program is part of the open-source Quantum ESPRESSO suite
     for quantum simulation of materials; please cite
         "P. Giannozzi et al., J. Phys.:Condens. Matter 21 395502 (2009);
         "P. Giannozzi et al., J. Phys.:Condens. Matter 29 465901 (2017);
          URL http://www.quantum-espresso.org", 
     in publications or presentations arising from this work. More details at
     http://www.quantum-espresso.org/quote

     Parallel version (MPI), running on    40 processors

     MPI processes distributed on     1 nodes
     R & G space division:  proc/nbgrp/npool/nimage =      40
     Waiting for input...
     Reading input from standard input
Warning: card    &IONS ignored
Warning: card      ION_DYNAMICS = 'BFGS' ignored
Warning: card   / ignored
Warning: card    &CELL ignored
Warning: card      CELL_DYNAMICS = 'BFGS', ignored
Warning: card    / ignored

     Current dimensions of program PWSCF are:
     Max number of different atomic species (ntypx) = 10
     Max number of k-points (npk) =  40000
     Max angular momentum in pseudopotentials (lmaxx) =  3

     Subspace diagonalization in iterative solution of the eigenvalue problem:
     one sub-group per band group will be used
     scalapack distributed-memory algorithm (size of sub-group:  4*  4 procs)

 
     Parallelization info
     --------------------
     sticks:   dense  smooth     PW     G-vecs:    dense   smooth      PW
     Min          89      44     12                25484     8994    1310
     Max          90      45     13                25501     9023    1331
     Sum        3571    1773    495              1019735   360237   52681
 


     bravais-lattice index     =            0
     lattice parameter (alat)  =      12.1282  a.u.
     unit-cell volume          =    8839.6429 (a.u.)^3
     number of atoms/cell      =           36
     number of atomic types    =            2
     number of electrons       =       216.00
     number of Kohn-Sham states=          130
     kinetic-energy cutoff     =      45.0000  Ry
     charge density cutoff     =     360.0000  Ry
     convergence threshold     =      1.0E-06
     mixing beta               =       0.7000
     number of iterations used =            8  local-TF  mixing
     Exchange-correlation      = SLA PW GGX GGC ( 1  4  2  2 0 0)

     celldm(1)=  12.128177  celldm(2)=   0.000000  celldm(3)=   0.000000
     celldm(4)=   0.000000  celldm(5)=   0.000000  celldm(6)=   0.000000

     crystal axes: (cart. coord. in units of alat)
               a(1) = (   1.000000   0.000000   0.000000 )  
               a(2) = (   0.531020   0.846649   0.000000 )  
               a(3) = (   0.197719   0.699842   5.852544 )  

     reciprocal axes: (cart. coord. in units 2 pi/alat)
               b(1) = (  1.000000 -0.627202  0.041217 )  
               b(2) = (  0.000000  1.181127 -0.141238 )  
               b(3) = (  0.000000  0.000000  0.170866 )  


     PseudoPot. # 1 for Mo read from file:
     ~/pseudo/Mo.pw91-n-van.UPF
     MD5 check sum: Not computed, couldn't open file
     Pseudo is Ultrasoft + core correction, Zval =  6.0
     Generated by new atomic code, or converted to UPF format
     Using radial grid of  965 points,  3 beta functions with: 
                l(1) =   1
                l(2) =   2
                l(3) =   2
     Q(r) pseudized with  8 coefficients,  rinner =    1.000   1.000   1.000
                                                       1.200   1.200

     PseudoPot. # 2 for S  read from file:
     ~/pseudo/S.pw91-van_ak.UPF
     MD5 check sum: Not computed, couldn't open file
     Pseudo is Ultrasoft, Zval =  6.0
     Generated by new atomic code, or converted to UPF format
     Using radial grid of  811 points,  6 beta functions with: 
                l(1) =   0
                l(2) =   0
                l(3) =   1
                l(4) =   1
                l(5) =   2
                l(6) =   2
     Q(r) pseudized with  8 coefficients,  rinner =    1.100   1.100   1.100
                                                       1.100   1.100

     atomic species   valence    mass     pseudopotential
        Mo             6.00    95.50000     Mo( 1.00)
        S              6.00    32.06500     S ( 1.00)

     No symmetry found



   Cartesian axes

     site n.     atom                  positions (alat units)
         1           Mo  tau(   1) = (   0.5242794   0.7922577   5.7768649  )
         2           Mo  tau(   2) = (   0.4604083   0.4091903   0.1161788  )
         3           Mo  tau(   3) = (   1.2882312   1.2148552   5.7804869  )
         4           Mo  tau(   4) = (   1.2242821   0.8315826   0.1201700  )
         5           Mo  tau(   5) = (   1.1703605   1.2288569   4.4795069  )
         6           Mo  tau(   6) = (   0.9048891   0.8054859   4.4790852  )
         7           Mo  tau(   7) = (   0.4048596   0.8055382   4.4795305  )
         8           Mo  tau(   8) = (   0.6704088   1.2288227   4.4791554  )
         9           Mo  tau(   9) = (   1.1197660   0.4639735   1.3567272  )
        10           Mo  tau(  10) = (   1.3852170   0.8872482   1.3556407  )
        11           Mo  tau(  11) = (   0.8853075   0.8873124   1.3567818  )
        12           Mo  tau(  12) = (   0.6197541   0.4638649   1.3556170  )
        13           S   tau(  13) = (   0.1470336   0.2627191   0.1998444  )
        14           S   tau(  14) = (   1.4243062   0.6730759   0.4377645  )
        15           S   tau(  15) = (   0.9090171   0.6877956   0.2007845  )
        16           S   tau(  16) = (   0.6773382   0.2669656   0.4253868  )
        17           S   tau(  17) = (   1.1572807   0.9451195   4.7282531  )
        18           S   tau(  18) = (   1.4233568   1.3686424   4.7277891  )
        19           S   tau(  19) = (   0.9228765   1.3684859   4.7282608  )
        20           S   tau(  20) = (   0.6579288   0.9452461   4.7278334  )
        21           S   tau(  21) = (   0.1065728   0.1801251   1.6052127  )
        22           S   tau(  22) = (   0.3728313   0.6037713   1.6047388  )
        23           S   tau(  23) = (   0.8720972   0.6034220   1.6052063  )
        24           S   tau(  24) = (   1.1383381   1.0271208   1.6047887  )
        25           S   tau(  25) = (   0.3261000   0.9511861   5.4575716  )
        26           S   tau(  26) = (   1.6016230   1.3614579   5.6968738  )
        27           S   tau(  27) = (   1.0711627   1.3568082   5.4697520  )
        28           S   tau(  28) = (   0.8395207   0.9359260   5.6960257  )
        29           S   tau(  29) = (   1.1572233   0.9450214   4.2305232  )
        30           S   tau(  30) = (   0.8914480   0.5214652   4.2303302  )
        31           S   tau(  31) = (   0.3916891   0.5217111   4.2305706  )
        32           S   tau(  32) = (   0.6569350   0.9448350   4.2303428  )
        33           S   tau(  33) = (   0.1070782   0.1803996   1.1079790  )
        34           S   tau(  34) = (   0.3714488   0.6030033   1.1067045  )
        35           S   tau(  35) = (   0.8725874   0.6037909   1.1079302  )
        36           S   tau(  36) = (   0.6058904   0.1796363   1.1066615  )

     number of k points=     5  Marzari-Vanderbilt smearing, width (Ry)=  0.0200
                       cart. coord. in units 2pi/alat
        k(    1) = (   0.0000000   0.0000000   0.0000000), wk =   0.2222222
        k(    2) = (   0.0000000   0.3937089  -0.0470794), wk =   0.4444444
        k(    3) = (   0.3333333  -0.2090674   0.0137389), wk =   0.4444444
        k(    4) = (   0.3333333   0.1846415  -0.0333404), wk =   0.4444444
        k(    5) = (   0.3333333  -0.6027763   0.0608183), wk =   0.4444444

     Dense  grid:  1019735 G-vectors     FFT dimensions: (  75,  75, 432)

     Smooth grid:   360237 G-vectors     FFT dimensions: (  54,  54, 320)

     Estimated max dynamical RAM per process >     158.84 MB

     Estimated total dynamical RAM >       6.20 GB

     Initial potential from superposition of free atoms

     starting charge  215.98107, renormalised to  216.00000

     negative rho (up, down):  9.735E-04 0.000E+00
     Starting wfcs are  204 randomized atomic wfcs

     total cpu time spent up to now is        5.9 secs

     Self-consistent Calculation

     iteration #  1     ecut=    45.00 Ry     beta= 0.70
     Davidson diagonalization with overlap
     ethr =  1.00E-02,  avg # of iterations =  2.2

     negative rho (up, down):  8.622E-05 0.000E+00

     total cpu time spent up to now is       15.3 secs

     total energy              =    -843.56764350 Ry
     Harris-Foulkes estimate   =    -846.21727029 Ry
     estimated scf accuracy    <       7.24164430 Ry

     iteration #  2     ecut=    45.00 Ry     beta= 0.70
     Davidson diagonalization with overlap
     ethr =  3.35E-03,  avg # of iterations =  3.0

     negative rho (up, down):  1.571E-05 0.000E+00

     total cpu time spent up to now is       23.8 secs

     total energy              =    -844.83733400 Ry
     Harris-Foulkes estimate   =    -845.11518849 Ry
     estimated scf accuracy    <       1.64224402 Ry

     iteration #  3     ecut=    45.00 Ry     beta= 0.70
     Davidson diagonalization with overlap
     ethr =  7.60E-04,  avg # of iterations =  2.4

     negative rho (up, down):  8.684E-07 0.000E+00

     total cpu time spent up to now is       30.9 secs

     total energy              =    -844.92906500 Ry
     Harris-Foulkes estimate   =    -844.97508322 Ry
     estimated scf accuracy    <       0.26604177 Ry

     iteration #  4     ecut=    45.00 Ry     beta= 0.70
     Davidson diagonalization with overlap
     ethr =  1.23E-04,  avg # of iterations =  3.6

     negative rho (up, down):  2.885E-08 0.000E+00

     total cpu time spent up to now is       39.1 secs

     total energy              =    -844.95021283 Ry
     Harris-Foulkes estimate   =    -844.96831079 Ry
     estimated scf accuracy    <       0.05627399 Ry

     iteration #  5     ecut=    45.00 Ry     beta= 0.70
     Davidson diagonalization with overlap
     ethr =  2.61E-05,  avg # of iterations =  3.0

     total cpu time spent up to now is       47.4 secs

     total energy              =    -844.95607248 Ry
     Harris-Foulkes estimate   =    -844.95889740 Ry
     estimated scf accuracy    <       0.02431382 Ry

     iteration #  6     ecut=    45.00 Ry     beta= 0.70
     Davidson diagonalization with overlap
     ethr =  1.13E-05,  avg # of iterations =  7.4

     total cpu time spent up to now is       55.8 secs

     total energy              =    -844.95642445 Ry
     Harris-Foulkes estimate   =    -844.95695615 Ry
     estimated scf accuracy    <       0.03028421 Ry

     iteration #  7     ecut=    45.00 Ry     beta= 0.70
     Davidson diagonalization with overlap
     ethr =  1.13E-05,  avg # of iterations =  1.0

     negative rho (up, down):  2.462E-07 0.000E+00

     total cpu time spent up to now is       62.1 secs

     total energy              =    -844.95379437 Ry
     Harris-Foulkes estimate   =    -844.95661056 Ry
     estimated scf accuracy    <       0.03153550 Ry

     iteration #  8     ecut=    45.00 Ry     beta= 0.70
     Davidson diagonalization with overlap
     ethr =  1.13E-05,  avg # of iterations =  1.0

     negative rho (up, down):  1.424E-02 0.000E+00

     total cpu time spent up to now is       69.0 secs

     total energy              =    -844.94989500 Ry
     Harris-Foulkes estimate   =    -844.95421645 Ry
     estimated scf accuracy    <       0.01991938 Ry

     iteration #  9     ecut=    45.00 Ry     beta= 0.70
     Davidson diagonalization with overlap
     ethr =  9.22E-06,  avg # of iterations = 11.0

     negative rho (up, down):  1.649E-05 0.000E+00

     total cpu time spent up to now is       81.7 secs

     total energy              =    -844.94423710 Ry
     Harris-Foulkes estimate   =    -844.95872061 Ry
     estimated scf accuracy    <       0.09592925 Ry

     iteration # 10     ecut=    45.00 Ry     beta= 0.70
     Davidson diagonalization with overlap
     ethr =  9.22E-06,  avg # of iterations =  7.6

     negative rho (up, down):  1.415E-04 0.000E+00

     total cpu time spent up to now is       91.5 secs

     total energy              =    -844.95226861 Ry
     Harris-Foulkes estimate   =    -844.95268003 Ry
     estimated scf accuracy    <       0.01017679 Ry

     iteration # 11     ecut=    45.00 Ry     beta= 0.70
     Davidson diagonalization with overlap
     ethr =  4.71E-06,  avg # of iterations =  1.0

     negative rho (up, down):  6.181E-04 0.000E+00

     total cpu time spent up to now is       98.6 secs

     total energy              =    -844.95225119 Ry
     Harris-Foulkes estimate   =    -844.95258255 Ry
     estimated scf accuracy    <       0.00762709 Ry

     iteration # 12     ecut=    45.00 Ry     beta= 0.70
     Davidson diagonalization with overlap
     ethr =  3.53E-06,  avg # of iterations =  1.0

     negative rho (up, down):  1.788E-03 0.000E+00

     total cpu time spent up to now is      105.7 secs

     total energy              =    -844.95212780 Ry
     Harris-Foulkes estimate   =    -844.95240609 Ry
     estimated scf accuracy    <       0.00362486 Ry

     iteration # 13     ecut=    45.00 Ry     beta= 0.70
     Davidson diagonalization with overlap
     c_bands:  1 eigenvalues not converged
     ethr =  1.68E-06,  avg # of iterations =  8.4

     negative rho (up, down):  2.024E-03 0.000E+00

     total cpu time spent up to now is      115.9 secs

     total energy              =    -844.95221980 Ry
     Harris-Foulkes estimate   =    -844.95226037 Ry
     estimated scf accuracy    <       0.00036391 Ry

     iteration # 14     ecut=    45.00 Ry     beta= 0.70
     Davidson diagonalization with overlap
     c_bands:  2 eigenvalues not converged
     ethr =  1.68E-07,  avg # of iterations =  6.8

     negative rho (up, down):  8.891E-04 0.000E+00

     total cpu time spent up to now is      125.8 secs

     total energy              =    -844.95222421 Ry
     Harris-Foulkes estimate   =    -844.95226453 Ry
     estimated scf accuracy    <       0.00005125 Ry

     iteration # 15     ecut=    45.00 Ry     beta= 0.70
     Davidson diagonalization with overlap
     ethr =  2.37E-08,  avg # of iterations =  8.6

     negative rho (up, down):  1.157E-03 0.000E+00

     total cpu time spent up to now is      138.3 secs

     total energy              =    -844.95225059 Ry
     Harris-Foulkes estimate   =    -844.95225250 Ry
     estimated scf accuracy    <       0.00010007 Ry

     iteration # 16     ecut=    45.00 Ry     beta= 0.70
     Davidson diagonalization with overlap
     ethr =  2.37E-08,  avg # of iterations =  1.0

     negative rho (up, down):  1.395E-03 0.000E+00

     total cpu time spent up to now is      145.5 secs

     total energy              =    -844.95224960 Ry
     Harris-Foulkes estimate   =    -844.95225175 Ry
     estimated scf accuracy    <       0.00004983 Ry

     iteration # 17     ecut=    45.00 Ry     beta= 0.70
     Davidson diagonalization with overlap
     ethr =  2.31E-08,  avg # of iterations =  3.0

     negative rho (up, down):  1.407E-03 0.000E+00

     total cpu time spent up to now is      153.9 secs

     total energy              =    -844.95225177 Ry
     Harris-Foulkes estimate   =    -844.95225275 Ry
     estimated scf accuracy    <       0.00002529 Ry

     iteration # 18     ecut=    45.00 Ry     beta= 0.70
     Davidson diagonalization with overlap
     ethr =  1.17E-08,  avg # of iterations =  1.0

     negative rho (up, down):  1.403E-03 0.000E+00

     total cpu time spent up to now is      161.4 secs

     total energy              =    -844.95225187 Ry
     Harris-Foulkes estimate   =    -844.95225242 Ry
     estimated scf accuracy    <       0.00000565 Ry

     iteration # 19     ecut=    45.00 Ry     beta= 0.70
     Davidson diagonalization with overlap
     ethr =  2.62E-09,  avg # of iterations =  1.0

     negative rho (up, down):  1.358E-03 0.000E+00

     total cpu time spent up to now is      167.5 secs

     End of self-consistent calculation

          k = 0.0000 0.0000 0.0000 ( 44995 PWs)   bands (ev):

   -13.0996 -13.0295 -13.0276 -12.5824 -11.9268 -11.8882 -11.8664 -11.8635
   -11.2564 -11.2545 -11.1087 -11.1038 -11.1009 -11.1000 -11.0891 -11.0867
   -11.0624 -10.8950 -10.8910 -10.8878 -10.8874 -10.8842 -10.0599 -10.0438
    -5.0509  -5.0254  -4.7161  -4.7140  -4.6540  -4.6515  -4.6514  -4.6497
    -4.5073  -4.5034  -4.4639  -4.2097  -3.8516  -3.8217  -3.7855  -3.7826
    -3.7820  -3.7806  -3.7094  -3.6988  -3.6960  -3.3331  -2.9992  -2.9967
    -2.9698  -2.9672  -2.9666  -2.9656  -2.7221  -2.6208  -2.6120  -2.3433
    -2.1647  -2.1487  -2.1468  -2.1395  -2.1381  -2.0902  -1.6642  -1.6623
    -1.6403  -1.6392  -1.4840  -1.3776  -1.3543  -1.2760  -1.1882  -1.1872
    -1.1844  -1.0180  -1.0159  -1.0123  -1.0011  -0.9530  -0.8293  -0.8266
    -0.8237  -0.8230  -0.7783  -0.7683  -0.5781  -0.4449  -0.4437  -0.1014
    -0.0993   0.1144   0.1167   0.1228   0.1244   0.2143   0.2204   0.2431
     0.4454   0.4589   0.4659   0.4663   0.4697   0.5376   0.5401   0.5420
     0.5514   0.8820   0.8837   1.2687   1.3250   1.4847   1.7604   2.5303
     2.7529   2.8129   2.9782   3.1750   3.1773   3.1785   3.1808   3.2072
     3.2223   3.2245   3.5705   3.6446   3.6533   3.6715   3.6737   3.7685
     3.7720   3.8031

          k = 0.0000 0.3937-0.0471 ( 45025 PWs)   bands (ev):

   -12.8077 -12.6320 -12.6300 -12.4372 -12.2091 -12.0955 -11.6929 -11.6909
   -11.6606 -11.6577 -11.2488 -11.2469 -11.1847 -11.1786 -11.1719 -11.1702
   -11.0277 -11.0255 -10.9290 -10.9268 -10.8522 -10.7480 -10.3670 -10.3447
    -4.6655  -4.3369  -4.1956  -4.1933  -4.1916  -4.1416  -4.1394  -4.0794
    -4.0777  -4.0731  -4.0679  -4.0522  -3.8043  -3.7691  -3.7668  -3.7624
    -3.7119  -3.7097  -3.3862  -3.2910  -3.2111  -3.0780  -3.0753  -2.8136
    -2.7740  -2.7722  -2.7503  -2.7474  -2.7135  -2.7109  -2.4580  -2.3670
    -2.1684  -2.1652  -2.1187  -2.1171  -2.1018  -2.0008  -1.9981  -1.8198
    -1.8089  -1.8071  -1.7843  -1.7521  -1.7392  -1.7194  -1.3455  -1.3397
    -1.3285  -1.1603  -1.1566  -1.1016  -1.0859  -1.0847  -1.0697  -0.9839
    -0.9561  -0.9546  -0.9336  -0.7704  -0.7675  -0.7326  -0.7291  -0.6402
    -0.5897  -0.5857  -0.5687  -0.2722  -0.2706  -0.2617   0.0116   0.0224
     0.0927   0.1331   0.1352   0.2079   0.5518   0.5737   0.6269   0.6289
     0.6784   0.6821   0.6888   0.6909   1.0205   1.5535   1.6744   2.1315
     2.3456   2.5305   2.9602   2.9892   3.1016   3.1039   3.1799   3.1839
     3.1988   3.2016   3.2283   3.2751   3.2959   3.3336   3.3365   3.5084
     3.5302   3.5327

          k = 0.3333-0.2091 0.0137 ( 45024 PWs)   bands (ev):

   -12.8023 -12.6325 -12.6305 -12.4403 -12.1860 -12.1143 -11.6947 -11.6927
   -11.6612 -11.6583 -11.2479 -11.2460 -11.1857 -11.1804 -11.1702 -11.1693
   -11.0269 -11.0247 -10.9265 -10.9243 -10.8549 -10.7478 -10.3641 -10.3455
    -4.6353  -4.4826  -4.2097  -4.1966  -4.1946  -4.1423  -4.1402  -4.0854
    -4.0797  -4.0780  -4.0692  -4.0665  -3.8542  -3.7712  -3.7690  -3.7132
    -3.7110  -3.6993  -3.3998  -3.2646  -3.2388  -3.0790  -3.0762  -2.7772
    -2.7728  -2.7556  -2.7533  -2.7505  -2.7122  -2.7095  -2.5317  -2.2922
    -2.1735  -2.1696  -2.1536  -2.1231  -2.1215  -2.0017  -1.9991  -1.9026
    -1.8087  -1.8008  -1.7991  -1.7424  -1.7370  -1.6216  -1.3787  -1.3423
    -1.3405  -1.1575  -1.1542  -1.0804  -1.0791  -1.0782  -1.0087  -0.9503
    -0.9488  -0.9072  -0.7711  -0.7663  -0.7309  -0.7273  -0.6821  -0.6085
    -0.5907  -0.5873  -0.5586  -0.2677  -0.2661  -0.2270   0.0150   0.0197
     0.1297   0.1330   0.1782   0.2357   0.3308   0.4997   0.6236   0.6257
     0.6760   0.6788   0.6875   0.6894   1.1272   1.5420   1.6137   2.1191
     2.3403   2.5655   2.7184   2.9515   3.1020   3.1045   3.1815   3.1848
     3.2010   3.2038   3.2554   3.2666   3.3301   3.3342   3.3366   3.3877
     3.5137   3.5379

          k = 0.3333 0.1846-0.0333 ( 45175 PWs)   bands (ev):

   -12.9192 -12.6625 -12.6604 -12.6245 -11.9707 -11.9483 -11.7978 -11.7952
   -11.6956 -11.6935 -11.3116 -11.3092 -11.1266 -11.1214 -11.1193 -11.1182
   -11.0806 -10.9647 -10.8816 -10.8773 -10.8751 -10.8750 -10.0687 -10.0528
    -4.8639  -4.8319  -4.7068  -4.5923  -4.3936  -4.2534  -4.2505  -4.2504
    -4.2490  -4.1046  -4.1018  -4.0898  -4.0885  -3.8463  -3.8453  -3.8443
    -3.8431  -3.6065  -3.3847  -3.1183  -3.1154  -2.9120  -2.9089  -2.8270
    -2.7441  -2.7084  -2.7056  -2.7046  -2.7032  -2.6349  -2.5359  -2.3321
    -2.3308  -2.2902  -2.2165  -2.2140  -2.2130  -2.2104  -2.1949  -2.0957
    -1.8876  -1.8824  -1.5729  -1.5123  -1.4839  -1.3603  -1.3583  -1.3087
    -1.2060  -1.2033  -1.2015  -1.1987  -1.1861  -1.0843  -1.0326  -0.7806
    -0.7796  -0.7069  -0.7017  -0.6639  -0.6626  -0.6618  -0.6602  -0.6081
    -0.6061  -0.5235  -0.1957  -0.0922  -0.0821  -0.0776  -0.0742   0.0935
     0.0949   0.2757   0.5161   0.5179   0.5201   0.5217   0.5241   0.5564
     0.5772   0.5801   0.7099   1.1757   1.3288   1.7188   1.8946   1.9870
     2.0406   2.5703   2.7120   3.1002   3.1031   3.1159   3.2034   3.2046
     3.2064   3.2082   3.2323   3.2347   3.3330   3.3358   3.6275   3.6315
     3.6347   3.6637

          k = 0.3333-0.6028 0.0608 ( 45065 PWs)   bands (ev):

   -12.5992 -12.5033 -12.3017 -12.1238 -12.0133 -12.0077 -12.0048 -12.0034
   -11.9333 -11.9313 -11.3729 -11.3693 -11.3686 -11.3673 -11.2891 -11.2864
   -10.8928 -10.8909 -10.8655 -10.8266 -10.7755 -10.7733 -10.3496 -10.3261
    -4.6354  -4.3981  -4.2974  -4.2721  -4.2703  -4.1559  -4.1446  -3.7808
    -3.7789  -3.7653  -3.7605  -3.7585  -3.7577  -3.5061  -3.4862  -3.4838
    -3.3230  -3.2041  -2.9624  -2.9602  -2.9061  -2.7469  -2.7039  -2.7037
    -2.7006  -2.6989  -2.6959  -2.6950  -2.5989  -2.5660  -2.5639  -2.5005
    -2.4975  -2.4959  -2.4948  -2.4615  -2.4587  -2.3327  -2.1468  -2.1259
    -2.1199  -2.0516  -2.0387  -2.0329  -2.0293  -2.0279  -1.8655  -1.8626
    -1.7111  -1.6300  -1.2802  -1.1825  -1.1692  -1.1593  -1.1512  -0.8376
    -0.8226  -0.8201  -0.8189  -0.8179  -0.7272  -0.7255  -0.6017  -0.5867
    -0.3294  -0.1942  -0.0558  -0.0317  -0.0301  -0.0286   0.0056   0.0107
     0.0294   0.1615   0.1892   0.1913   0.2332   0.2913   0.2930   0.2946
     0.2960   0.6209   1.0493   1.0515   1.1440   1.4562   1.6459   2.0727
     2.3519   2.6167   2.6439   2.6877   2.8269   2.8295   2.8306   2.8319
     2.8767   2.8779   2.8801   2.8843   3.2184   3.4026   3.4059   3.4085
     3.4109   3.4436

     the Fermi energy is     1.0325 ev

!    total energy              =    -844.95225091 Ry
     Harris-Foulkes estimate   =    -844.95225215 Ry
     estimated scf accuracy    <       0.00000048 Ry

     The total energy is the sum of the following terms:

     one-electron contribution =   -6395.63074900 Ry
     hartree contribution      =    3278.64356458 Ry
     xc contribution           =    -334.02250654 Ry
     ewald contribution        =    2606.02799189 Ry
     smearing contrib. (-TS)   =       0.02944815 Ry

     convergence has been achieved in  19 iterations

     negative rho (up, down):  1.358E-03 0.000E+00

     Forces acting on atoms (cartesian axes, Ry/au):

     atom    1 type  1   force =    -0.12177935   -0.09326582   -0.10028744
     atom    2 type  1   force =     0.11977595    0.09620020    0.09828893
     atom    3 type  1   force =    -0.12044821   -0.09686502   -0.09886372
     atom    4 type  1   force =     0.12121213    0.09310305    0.09869280
     atom    5 type  1   force =    -0.00397848   -0.00216303   -0.00007187
     atom    6 type  1   force =    -0.00447028   -0.00242478   -0.00014840
     atom    7 type  1   force =    -0.00379099   -0.00217539   -0.00015678
     atom    8 type  1   force =    -0.00426886   -0.00263394   -0.00023020
     atom    9 type  1   force =    -0.00334508   -0.00192536   -0.00149206
     atom   10 type  1   force =    -0.00463851   -0.00285694   -0.00025897
     atom   11 type  1   force =    -0.00348551   -0.00203105   -0.00172725
     atom   12 type  1   force =    -0.00479081   -0.00258278   -0.00030813
     atom   13 type  2   force =    -0.06397649   -0.01859962    0.01315728
     atom   14 type  2   force =    -0.02851755   -0.00386249   -0.07870201
     atom   15 type  2   force =    -0.06100305   -0.02045276    0.01215294
     atom   16 type  2   force =    -0.03432159   -0.01178425   -0.06879125
     atom   17 type  2   force =     0.00199300    0.00078713   -0.00157374
     atom   18 type  2   force =     0.00097754    0.00072095   -0.00023116
     atom   19 type  2   force =     0.00196567    0.00106685   -0.00155448
     atom   20 type  2   force =     0.00084807    0.00061321   -0.00040126
     atom   21 type  2   force =     0.00180535    0.00077209   -0.00145756
     atom   22 type  2   force =     0.00158436    0.00100500   -0.00186582
     atom   23 type  2   force =     0.00157575    0.00107091   -0.00153604
     atom   24 type  2   force =     0.00132283    0.00075996   -0.00173937
     atom   25 type  2   force =     0.02792786    0.00395460    0.07985908
     atom   26 type  2   force =     0.06417021    0.01892967   -0.01322115
     atom   27 type  2   force =     0.03508542    0.01239573    0.07029055
     atom   28 type  2   force =     0.06116486    0.02037843   -0.01242462
     atom   29 type  2   force =     0.00291558    0.00123386    0.00188973
     atom   30 type  2   force =     0.00307808    0.00164135    0.00183559
     atom   31 type  2   force =     0.00240160    0.00171585    0.00177408
     atom   32 type  2   force =     0.00266870    0.00163540    0.00180732
     atom   33 type  2   force =     0.00140127    0.00091553    0.00014850
     atom   34 type  2   force =     0.00369427    0.00189856    0.00345078
     atom   35 type  2   force =     0.00142171    0.00048863    0.00039493
     atom   36 type  2   force =     0.00382455    0.00233627    0.00330077

     Total force =     0.422364     Total SCF correction =     0.001525
 
     init_run     :      5.22s CPU      5.35s WALL (       1 calls)
     electrons    :    155.91s CPU    161.62s WALL (       1 calls)
     forces       :      2.77s CPU      2.87s WALL (       1 calls)

     Called by init_run:
     wfcinit      :      2.94s CPU      2.98s WALL (       1 calls)
     potinit      :      0.64s CPU      0.66s WALL (       1 calls)
     hinit0       :      0.81s CPU      0.82s WALL (       1 calls)

     Called by electrons:
     c_bands      :    110.37s CPU    112.63s WALL (      19 calls)
     sum_band     :     22.91s CPU     24.50s WALL (      19 calls)
     v_of_rho     :      1.69s CPU      1.82s WALL (      20 calls)
     newd         :      6.69s CPU      7.51s WALL (      20 calls)
     mix_rho      :     14.38s CPU     15.32s WALL (      19 calls)

     Called by c_bands:
     init_us_2    :      1.71s CPU      1.75s WALL (     200 calls)
     cegterg      :    103.09s CPU    105.25s WALL (      95 calls)

     Called by sum_band:
     sum_band:bec :      0.11s CPU      0.12s WALL (      95 calls)
     addusdens    :      7.96s CPU      9.27s WALL (      19 calls)

     Called by *egterg:
     h_psi        :     57.29s CPU     58.58s WALL (     470 calls)
     s_psi        :     10.33s CPU     10.38s WALL (     470 calls)
     g_psi        :      0.17s CPU      0.17s WALL (     370 calls)
     cdiaghg      :     19.42s CPU     19.73s WALL (     465 calls)

     Called by h_psi:
     h_psi:pot    :     56.96s CPU     58.04s WALL (     470 calls)
     h_psi:calbec :     10.95s CPU     11.22s WALL (     470 calls)
     vloc_psi     :     35.56s CPU     36.16s WALL (     470 calls)
     add_vuspsi   :     10.45s CPU     10.66s WALL (     470 calls)

     General routines
     calbec       :     16.20s CPU     16.57s WALL (     585 calls)
     fft          :      1.65s CPU      1.77s WALL (     269 calls)
     ffts         :      7.65s CPU      8.49s WALL (    5623 calls)
     fftw         :     38.70s CPU     39.34s WALL (   69858 calls)
     interpolate  :      0.16s CPU      0.17s WALL (      20 calls)
 
     Parallel routines
     fft_scatt_xy :      5.39s CPU      5.47s WALL (   75750 calls)
     fft_scatt_yz :     20.70s CPU     21.82s WALL (   75750 calls)
 
     PWSCF        :   2m44.46s CPU   2m50.53s WALL

 
   This run was terminated on:  10: 9:32  14Oct2021            

=------------------------------------------------------------------------------=
   JOB DONE.
=------------------------------------------------------------------------------=

     Program PWSCF v.6.4 starts on 14Oct2021 at 10:50:45 

     This program is part of the open-source Quantum ESPRESSO suite
     for quantum simulation of materials; please cite
         "P. Giannozzi et al., J. Phys.:Condens. Matter 21 395502 (2009);
         "P. Giannozzi et al., J. Phys.:Condens. Matter 29 465901 (2017);
          URL http://www.quantum-espresso.org", 
     in publications or presentations arising from this work. More details at
     http://www.quantum-espresso.org/quote

     Parallel version (MPI), running on    40 processors

     MPI processes distributed on     1 nodes
     R & G space division:  proc/nbgrp/npool/nimage =      40
     Waiting for input...
     Reading input from standard input
Warning: card    &IONS ignored
Warning: card      ION_DYNAMICS = 'BFGS' ignored
Warning: card   / ignored
Warning: card    &CELL ignored
Warning: card      CELL_DYNAMICS = 'BFGS', ignored
Warning: card    / ignored

     Current dimensions of program PWSCF are:
     Max number of different atomic species (ntypx) = 10
     Max number of k-points (npk) =  40000
     Max angular momentum in pseudopotentials (lmaxx) =  3

     Subspace diagonalization in iterative solution of the eigenvalue problem:
     one sub-group per band group will be used
     scalapack distributed-memory algorithm (size of sub-group:  4*  4 procs)

 
     Parallelization info
     --------------------
     sticks:   dense  smooth     PW     G-vecs:    dense   smooth      PW
     Min          89      44     12                25484     8994    1310
     Max          90      45     13                25501     9023    1331
     Sum        3571    1773    495              1019735   360237   52681
 


     bravais-lattice index     =            0
     lattice parameter (alat)  =      12.1282  a.u.
     unit-cell volume          =    8839.6429 (a.u.)^3
     number of atoms/cell      =           36
     number of atomic types    =            2
     number of electrons       =       216.00
     number of Kohn-Sham states=          130
     kinetic-energy cutoff     =      45.0000  Ry
     charge density cutoff     =     360.0000  Ry
     convergence threshold     =      1.0E-06
     mixing beta               =       0.7000
     number of iterations used =            8  local-TF  mixing
     Exchange-correlation      = SLA PW GGX GGC ( 1  4  2  2 0 0)

     celldm(1)=  12.128177  celldm(2)=   0.000000  celldm(3)=   0.000000
     celldm(4)=   0.000000  celldm(5)=   0.000000  celldm(6)=   0.000000

     crystal axes: (cart. coord. in units of alat)
               a(1) = (   1.000000   0.000000   0.000000 )  
               a(2) = (   0.531020   0.846649   0.000000 )  
               a(3) = (   0.197719   0.699842   5.852544 )  

     reciprocal axes: (cart. coord. in units 2 pi/alat)
               b(1) = (  1.000000 -0.627202  0.041217 )  
               b(2) = (  0.000000  1.181127 -0.141238 )  
               b(3) = (  0.000000  0.000000  0.170866 )  


     PseudoPot. # 1 for Mo read from file:
     ~/pseudo/Mo.pw91-n-van.UPF
     MD5 check sum: Not computed, couldn't open file
     Pseudo is Ultrasoft + core correction, Zval =  6.0
     Generated by new atomic code, or converted to UPF format
     Using radial grid of  965 points,  3 beta functions with: 
                l(1) =   1
                l(2) =   2
                l(3) =   2
     Q(r) pseudized with  8 coefficients,  rinner =    1.000   1.000   1.000
                                                       1.200   1.200

     PseudoPot. # 2 for S  read from file:
     ~/pseudo/S.pw91-van_ak.UPF
     MD5 check sum: Not computed, couldn't open file
     Pseudo is Ultrasoft, Zval =  6.0
     Generated by new atomic code, or converted to UPF format
     Using radial grid of  811 points,  6 beta functions with: 
                l(1) =   0
                l(2) =   0
                l(3) =   1
                l(4) =   1
                l(5) =   2
                l(6) =   2
     Q(r) pseudized with  8 coefficients,  rinner =    1.100   1.100   1.100
                                                       1.100   1.100

     atomic species   valence    mass     pseudopotential
        Mo             6.00    95.50000     Mo( 1.00)
        S              6.00    32.06500     S ( 1.00)

     No symmetry found



   Cartesian axes

     site n.     atom                  positions (alat units)
         1           Mo  tau(   1) = (   0.5242794   0.7922577   5.7768649  )
         2           Mo  tau(   2) = (   0.4604083   0.4091903   0.1161788  )
         3           Mo  tau(   3) = (   1.2882312   1.2148552   5.7804869  )
         4           Mo  tau(   4) = (   1.2242821   0.8315826   0.1201700  )
         5           Mo  tau(   5) = (   1.1703605   1.2288569   4.4795069  )
         6           Mo  tau(   6) = (   0.9048891   0.8054859   4.4790852  )
         7           Mo  tau(   7) = (   0.4048596   0.8055382   4.4795305  )
         8           Mo  tau(   8) = (   0.6704088   1.2288227   4.4791554  )
         9           Mo  tau(   9) = (   1.1197660   0.4639735   1.3567272  )
        10           Mo  tau(  10) = (   1.3852170   0.8872482   1.3556407  )
        11           Mo  tau(  11) = (   0.8853075   0.8873124   1.3567818  )
        12           Mo  tau(  12) = (   0.6197541   0.4638649   1.3556170  )
        13           S   tau(  13) = (   0.1470336   0.2627191   0.1998444  )
        14           S   tau(  14) = (   1.4243062   0.6730759   0.4377645  )
        15           S   tau(  15) = (   0.9090171   0.6877956   0.2007845  )
        16           S   tau(  16) = (   0.6773382   0.2669656   0.4253868  )
        17           S   tau(  17) = (   1.1572807   0.9451195   4.7282531  )
        18           S   tau(  18) = (   1.4233568   1.3686424   4.7277891  )
        19           S   tau(  19) = (   0.9228765   1.3684859   4.7282608  )
        20           S   tau(  20) = (   0.6579288   0.9452461   4.7278334  )
        21           S   tau(  21) = (   0.1065728   0.1801251   1.6052127  )
        22           S   tau(  22) = (   0.3728313   0.6037713   1.6047388  )
        23           S   tau(  23) = (   0.8720972   0.6034220   1.6052063  )
        24           S   tau(  24) = (   1.1383381   1.0271208   1.6047887  )
        25           S   tau(  25) = (   0.3261000   0.9511861   5.4575716  )
        26           S   tau(  26) = (   1.6016230   1.3614579   5.6968738  )
        27           S   tau(  27) = (   1.0711627   1.3568082   5.4697520  )
        28           S   tau(  28) = (   0.8395207   0.9359260   5.6960257  )
        29           S   tau(  29) = (   1.1572233   0.9450214   4.2305232  )
        30           S   tau(  30) = (   0.8914480   0.5214652   4.2303302  )
        31           S   tau(  31) = (   0.3916891   0.5217111   4.2305706  )
        32           S   tau(  32) = (   0.6569350   0.9448350   4.2303428  )
        33           S   tau(  33) = (   0.1070782   0.1803996   1.1079790  )
        34           S   tau(  34) = (   0.3714488   0.6030033   1.1067045  )
        35           S   tau(  35) = (   0.8725874   0.6037909   1.1079302  )
        36           S   tau(  36) = (   0.6058904   0.1796363   1.1066615  )

     number of k points=     5  Marzari-Vanderbilt smearing, width (Ry)=  0.0200
                       cart. coord. in units 2pi/alat
        k(    1) = (   0.0000000   0.0000000   0.0000000), wk =   0.2222222
        k(    2) = (   0.0000000   0.3937089  -0.0470794), wk =   0.4444444
        k(    3) = (   0.3333333  -0.2090674   0.0137389), wk =   0.4444444
        k(    4) = (   0.3333333   0.1846415  -0.0333404), wk =   0.4444444
        k(    5) = (   0.3333333  -0.6027763   0.0608183), wk =   0.4444444

     Dense  grid:  1019735 G-vectors     FFT dimensions: (  75,  75, 432)

     Smooth grid:   360237 G-vectors     FFT dimensions: (  54,  54, 320)

     Estimated max dynamical RAM per process >     158.84 MB

     Estimated total dynamical RAM >       6.20 GB

     Initial potential from superposition of free atoms

     starting charge  215.98107, renormalised to  216.00000

     negative rho (up, down):  9.735E-04 0.000E+00
     Starting wfcs are  204 randomized atomic wfcs

     total cpu time spent up to now is        7.2 secs

     Self-consistent Calculation

     iteration #  1     ecut=    45.00 Ry     beta= 0.70
     Davidson diagonalization with overlap
     ethr =  1.00E-02,  avg # of iterations =  2.2

     negative rho (up, down):  8.622E-05 0.000E+00

     total cpu time spent up to now is       18.9 secs

     total energy              =    -843.56764350 Ry
     Harris-Foulkes estimate   =    -846.21727029 Ry
     estimated scf accuracy    <       7.24164430 Ry

     iteration #  2     ecut=    45.00 Ry     beta= 0.70
     Davidson diagonalization with overlap
     ethr =  3.35E-03,  avg # of iterations =  3.0

     negative rho (up, down):  1.571E-05 0.000E+00

     total cpu time spent up to now is       29.5 secs

     total energy              =    -844.83733400 Ry
     Harris-Foulkes estimate   =    -845.11518849 Ry
     estimated scf accuracy    <       1.64224402 Ry

     iteration #  3     ecut=    45.00 Ry     beta= 0.70
     Davidson diagonalization with overlap
     ethr =  7.60E-04,  avg # of iterations =  2.4

     negative rho (up, down):  8.684E-07 0.000E+00

     total cpu time spent up to now is       38.5 secs

     total energy              =    -844.92906500 Ry
     Harris-Foulkes estimate   =    -844.97508322 Ry
     estimated scf accuracy    <       0.26604177 Ry

     iteration #  4     ecut=    45.00 Ry     beta= 0.70
     Davidson diagonalization with overlap
     ethr =  1.23E-04,  avg # of iterations =  3.6

     negative rho (up, down):  2.886E-08 0.000E+00

     total cpu time spent up to now is       48.6 secs

     total energy              =    -844.95021282 Ry
     Harris-Foulkes estimate   =    -844.96831079 Ry
     estimated scf accuracy    <       0.05627399 Ry

     iteration #  5     ecut=    45.00 Ry     beta= 0.70
     Davidson diagonalization with overlap
     ethr =  2.61E-05,  avg # of iterations =  3.0

     total cpu time spent up to now is       58.8 secs

     total energy              =    -844.95607247 Ry
     Harris-Foulkes estimate   =    -844.95889740 Ry
     estimated scf accuracy    <       0.02431381 Ry

     iteration #  6     ecut=    45.00 Ry     beta= 0.70
     Davidson diagonalization with overlap
     ethr =  1.13E-05,  avg # of iterations =  7.4

     total cpu time spent up to now is       69.5 secs

     total energy              =    -844.95642444 Ry
     Harris-Foulkes estimate   =    -844.95695614 Ry
     estimated scf accuracy    <       0.03028421 Ry

     iteration #  7     ecut=    45.00 Ry     beta= 0.70
     Davidson diagonalization with overlap
     ethr =  1.13E-05,  avg # of iterations =  1.0

     negative rho (up, down):  2.457E-07 0.000E+00

     total cpu time spent up to now is       77.4 secs

     total energy              =    -844.95379426 Ry
     Harris-Foulkes estimate   =    -844.95661055 Ry
     estimated scf accuracy    <       0.03153550 Ry

     iteration #  8     ecut=    45.00 Ry     beta= 0.70
     Davidson diagonalization with overlap
     ethr =  1.13E-05,  avg # of iterations =  1.0

     negative rho (up, down):  1.424E-02 0.000E+00

     total cpu time spent up to now is       86.0 secs

     total energy              =    -844.94989515 Ry
     Harris-Foulkes estimate   =    -844.95421638 Ry
     estimated scf accuracy    <       0.01991873 Ry

     iteration #  9     ecut=    45.00 Ry     beta= 0.70
     Davidson diagonalization with overlap
     ethr =  9.22E-06,  avg # of iterations = 11.0

     negative rho (up, down):  1.651E-05 0.000E+00

     total cpu time spent up to now is      101.6 secs

     total energy              =    -844.94423737 Ry
     Harris-Foulkes estimate   =    -844.95872054 Ry
     estimated scf accuracy    <       0.09592956 Ry

     iteration # 10     ecut=    45.00 Ry     beta= 0.70
     Davidson diagonalization with overlap
     ethr =  9.22E-06,  avg # of iterations =  7.6

     negative rho (up, down):  1.416E-04 0.000E+00

     total cpu time spent up to now is      113.9 secs

     total energy              =    -844.95226865 Ry
     Harris-Foulkes estimate   =    -844.95267994 Ry
     estimated scf accuracy    <       0.01017624 Ry

     iteration # 11     ecut=    45.00 Ry     beta= 0.70
     Davidson diagonalization with overlap
     ethr =  4.71E-06,  avg # of iterations =  1.0

     negative rho (up, down):  6.179E-04 0.000E+00

     total cpu time spent up to now is      123.2 secs

     total energy              =    -844.95225117 Ry
     Harris-Foulkes estimate   =    -844.95258256 Ry
     estimated scf accuracy    <       0.00762717 Ry

     iteration # 12     ecut=    45.00 Ry     beta= 0.70
     Davidson diagonalization with overlap
     ethr =  3.53E-06,  avg # of iterations =  1.0

     negative rho (up, down):  1.788E-03 0.000E+00

     total cpu time spent up to now is      132.5 secs

     total energy              =    -844.95212778 Ry
     Harris-Foulkes estimate   =    -844.95240607 Ry
     estimated scf accuracy    <       0.00362470 Ry

     iteration # 13     ecut=    45.00 Ry     beta= 0.70
     Davidson diagonalization with overlap
     c_bands:  1 eigenvalues not converged
     ethr =  1.68E-06,  avg # of iterations =  8.4

     negative rho (up, down):  2.024E-03 0.000E+00

     total cpu time spent up to now is      145.5 secs

     total energy              =    -844.95221981 Ry
     Harris-Foulkes estimate   =    -844.95226036 Ry
     estimated scf accuracy    <       0.00036363 Ry

     iteration # 14     ecut=    45.00 Ry     beta= 0.70
     Davidson diagonalization with overlap
     c_bands:  2 eigenvalues not converged
     ethr =  1.68E-07,  avg # of iterations =  6.8

     negative rho (up, down):  8.889E-04 0.000E+00

     total cpu time spent up to now is      158.1 secs

     total energy              =    -844.95222419 Ry
     Harris-Foulkes estimate   =    -844.95226452 Ry
     estimated scf accuracy    <       0.00005127 Ry

     iteration # 15     ecut=    45.00 Ry     beta= 0.70
     Davidson diagonalization with overlap
     ethr =  2.37E-08,  avg # of iterations =  8.6

     negative rho (up, down):  1.157E-03 0.000E+00

     total cpu time spent up to now is      173.6 secs

     total energy              =    -844.95225059 Ry
     Harris-Foulkes estimate   =    -844.95225251 Ry
     estimated scf accuracy    <       0.00010008 Ry

     iteration # 16     ecut=    45.00 Ry     beta= 0.70
     Davidson diagonalization with overlap
     ethr =  2.37E-08,  avg # of iterations =  1.0

     negative rho (up, down):  1.395E-03 0.000E+00

     total cpu time spent up to now is      182.5 secs

     total energy              =    -844.95224960 Ry
     Harris-Foulkes estimate   =    -844.95225175 Ry
     estimated scf accuracy    <       0.00004984 Ry

     iteration # 17     ecut=    45.00 Ry     beta= 0.70
     Davidson diagonalization with overlap
     ethr =  2.31E-08,  avg # of iterations =  3.0

     negative rho (up, down):  1.407E-03 0.000E+00

     total cpu time spent up to now is      193.0 secs

     total energy              =    -844.95225178 Ry
     Harris-Foulkes estimate   =    -844.95225276 Ry
     estimated scf accuracy    <       0.00002532 Ry

     iteration # 18     ecut=    45.00 Ry     beta= 0.70
     Davidson diagonalization with overlap
     ethr =  1.17E-08,  avg # of iterations =  1.0

     negative rho (up, down):  1.404E-03 0.000E+00

     total cpu time spent up to now is      202.2 secs

     total energy              =    -844.95225189 Ry
     Harris-Foulkes estimate   =    -844.95225242 Ry
     estimated scf accuracy    <       0.00000568 Ry

     iteration # 19     ecut=    45.00 Ry     beta= 0.70
     Davidson diagonalization with overlap
     ethr =  2.63E-09,  avg # of iterations =  1.0

     negative rho (up, down):  1.358E-03 0.000E+00

     total cpu time spent up to now is      209.8 secs

     End of self-consistent calculation

          k = 0.0000 0.0000 0.0000 ( 44995 PWs)   bands (ev):

   -13.0995 -13.0295 -13.0276 -12.5824 -11.9268 -11.8882 -11.8664 -11.8635
   -11.2564 -11.2545 -11.1087 -11.1038 -11.1009 -11.1000 -11.0891 -11.0867
   -11.0624 -10.8950 -10.8910 -10.8878 -10.8874 -10.8842 -10.0599 -10.0438
    -5.0509  -5.0254  -4.7160  -4.7140  -4.6540  -4.6515  -4.6514  -4.6497
    -4.5073  -4.5034  -4.4638  -4.2097  -3.8516  -3.8217  -3.7855  -3.7826
    -3.7820  -3.7806  -3.7094  -3.6988  -3.6960  -3.3331  -2.9991  -2.9966
    -2.9698  -2.9672  -2.9666  -2.9656  -2.7221  -2.6208  -2.6119  -2.3433
    -2.1647  -2.1487  -2.1468  -2.1395  -2.1381  -2.0901  -1.6642  -1.6623
    -1.6403  -1.6391  -1.4840  -1.3776  -1.3543  -1.2760  -1.1882  -1.1872
    -1.1843  -1.0180  -1.0159  -1.0123  -1.0011  -0.9530  -0.8292  -0.8266
    -0.8237  -0.8230  -0.7783  -0.7683  -0.5780  -0.4449  -0.4436  -0.1014
    -0.0993   0.1144   0.1167   0.1228   0.1244   0.2143   0.2204   0.2431
     0.4454   0.4589   0.4659   0.4663   0.4697   0.5376   0.5401   0.5420
     0.5514   0.8820   0.8838   1.2688   1.3250   1.4847   1.7605   2.5303
     2.7529   2.8129   2.9782   3.1750   3.1773   3.1786   3.1808   3.2073
     3.2223   3.2246   3.5705   3.6446   3.6533   3.6715   3.6737   3.7685
     3.7720   3.8031

          k = 0.0000 0.3937-0.0471 ( 45025 PWs)   bands (ev):

   -12.8077 -12.6319 -12.6299 -12.4372 -12.2091 -12.0955 -11.6929 -11.6909
   -11.6606 -11.6577 -11.2488 -11.2469 -11.1847 -11.1785 -11.1719 -11.1702
   -11.0277 -11.0255 -10.9290 -10.9268 -10.8522 -10.7480 -10.3670 -10.3447
    -4.6655  -4.3369  -4.1956  -4.1932  -4.1916  -4.1415  -4.1394  -4.0794
    -4.0777  -4.0731  -4.0678  -4.0521  -3.8043  -3.7690  -3.7668  -3.7624
    -3.7118  -3.7097  -3.3862  -3.2910  -3.2111  -3.0780  -3.0753  -2.8136
    -2.7739  -2.7722  -2.7503  -2.7474  -2.7135  -2.7109  -2.4580  -2.3670
    -2.1684  -2.1652  -2.1187  -2.1171  -2.1018  -2.0007  -1.9981  -1.8198
    -1.8089  -1.8070  -1.7843  -1.7521  -1.7392  -1.7194  -1.3455  -1.3397
    -1.3285  -1.1603  -1.1566  -1.1016  -1.0859  -1.0847  -1.0697  -0.9839
    -0.9561  -0.9546  -0.9336  -0.7704  -0.7675  -0.7325  -0.7291  -0.6401
    -0.5896  -0.5857  -0.5687  -0.2722  -0.2706  -0.2617   0.0117   0.0224
     0.0927   0.1331   0.1352   0.2079   0.5519   0.5737   0.6269   0.6289
     0.6784   0.6821   0.6888   0.6909   1.0206   1.5536   1.6744   2.1315
     2.3456   2.5305   2.9602   2.9893   3.1016   3.1039   3.1800   3.1839
     3.1988   3.2016   3.2283   3.2751   3.2959   3.3336   3.3365   3.5084
     3.5303   3.5327

          k = 0.3333-0.2091 0.0137 ( 45024 PWs)   bands (ev):

   -12.8023 -12.6325 -12.6305 -12.4403 -12.1860 -12.1143 -11.6947 -11.6927
   -11.6612 -11.6583 -11.2479 -11.2460 -11.1857 -11.1804 -11.1702 -11.1693
   -11.0269 -11.0247 -10.9264 -10.9242 -10.8549 -10.7477 -10.3641 -10.3455
    -4.6353  -4.4826  -4.2097  -4.1965  -4.1946  -4.1423  -4.1402  -4.0854
    -4.0797  -4.0780  -4.0692  -4.0665  -3.8541  -3.7712  -3.7690  -3.7132
    -3.7109  -3.6993  -3.3998  -3.2645  -3.2388  -3.0789  -3.0762  -2.7772
    -2.7728  -2.7555  -2.7533  -2.7505  -2.7121  -2.7095  -2.5317  -2.2922
    -2.1734  -2.1696  -2.1536  -2.1231  -2.1215  -2.0017  -1.9991  -1.9025
    -1.8086  -1.8008  -1.7991  -1.7424  -1.7370  -1.6215  -1.3786  -1.3423
    -1.3405  -1.1575  -1.1542  -1.0804  -1.0790  -1.0782  -1.0087  -0.9502
    -0.9488  -0.9071  -0.7711  -0.7663  -0.7309  -0.7273  -0.6821  -0.6085
    -0.5907  -0.5872  -0.5586  -0.2677  -0.2661  -0.2270   0.0150   0.0197
     0.1297   0.1330   0.1782   0.2357   0.3309   0.4997   0.6236   0.6257
     0.6761   0.6788   0.6875   0.6895   1.1272   1.5420   1.6137   2.1191
     2.3403   2.5655   2.7184   2.9515   3.1020   3.1045   3.1815   3.1848
     3.2010   3.2038   3.2554   3.2666   3.3301   3.3343   3.3366   3.3877
     3.5137   3.5379

          k = 0.3333 0.1846-0.0333 ( 45175 PWs)   bands (ev):

   -12.9192 -12.6624 -12.6604 -12.6245 -11.9707 -11.9483 -11.7978 -11.7952
   -11.6956 -11.6935 -11.3116 -11.3092 -11.1266 -11.1214 -11.1193 -11.1181
   -11.0806 -10.9647 -10.8816 -10.8773 -10.8751 -10.8750 -10.0687 -10.0528
    -4.8639  -4.8319  -4.7067  -4.5923  -4.3936  -4.2533  -4.2505  -4.2504
    -4.2490  -4.1045  -4.1018  -4.0897  -4.0885  -3.8463  -3.8453  -3.8443
    -3.8431  -3.6065  -3.3847  -3.1183  -3.1154  -2.9120  -2.9089  -2.8270
    -2.7441  -2.7084  -2.7056  -2.7046  -2.7032  -2.6349  -2.5359  -2.3321
    -2.3308  -2.2902  -2.2165  -2.2140  -2.2130  -2.2104  -2.1949  -2.0957
    -1.8875  -1.8824  -1.5729  -1.5123  -1.4839  -1.3603  -1.3583  -1.3087
    -1.2060  -1.2033  -1.2015  -1.1987  -1.1861  -1.0843  -1.0325  -0.7806
    -0.7796  -0.7069  -0.7017  -0.6638  -0.6626  -0.6618  -0.6602  -0.6081
    -0.6061  -0.5235  -0.1957  -0.0922  -0.0821  -0.0776  -0.0742   0.0935
     0.0949   0.2757   0.5161   0.5179   0.5201   0.5217   0.5242   0.5564
     0.5773   0.5801   0.7099   1.1757   1.3288   1.7188   1.8946   1.9870
     2.0406   2.5703   2.7120   3.1003   3.1031   3.1160   3.2034   3.2046
     3.2065   3.2083   3.2323   3.2347   3.3331   3.3358   3.6276   3.6315
     3.6347   3.6637

          k = 0.3333-0.6028 0.0608 ( 45065 PWs)   bands (ev):

   -12.5992 -12.5033 -12.3017 -12.1238 -12.0133 -12.0077 -12.0048 -12.0034
   -11.9333 -11.9313 -11.3729 -11.3693 -11.3685 -11.3673 -11.2890 -11.2864
   -10.8927 -10.8909 -10.8655 -10.8266 -10.7755 -10.7733 -10.3495 -10.3260
    -4.6354  -4.3981  -4.2974  -4.2721  -4.2703  -4.1559  -4.1446  -3.7808
    -3.7788  -3.7653  -3.7605  -3.7585  -3.7577  -3.5061  -3.4862  -3.4838
    -3.3230  -3.2041  -2.9624  -2.9602  -2.9061  -2.7469  -2.7039  -2.7037
    -2.7006  -2.6989  -2.6959  -2.6949  -2.5989  -2.5660  -2.5639  -2.5004
    -2.4975  -2.4959  -2.4948  -2.4615  -2.4587  -2.3327  -2.1468  -2.1259
    -2.1199  -2.0516  -2.0387  -2.0329  -2.0293  -2.0278  -1.8655  -1.8626
    -1.7111  -1.6299  -1.2802  -1.1825  -1.1692  -1.1593  -1.1512  -0.8376
    -0.8226  -0.8201  -0.8189  -0.8179  -0.7272  -0.7255  -0.6017  -0.5867
    -0.3294  -0.1941  -0.0558  -0.0317  -0.0301  -0.0286   0.0056   0.0107
     0.0294   0.1615   0.1892   0.1913   0.2332   0.2913   0.2930   0.2946
     0.2960   0.6209   1.0493   1.0515   1.1440   1.4563   1.6459   2.0727
     2.3520   2.6167   2.6439   2.6877   2.8269   2.8295   2.8306   2.8320
     2.8767   2.8779   2.8802   2.8843   3.2184   3.4026   3.4060   3.4085
     3.4109   3.4436

     the Fermi energy is     1.0325 ev

!    total energy              =    -844.95225091 Ry
     Harris-Foulkes estimate   =    -844.95225218 Ry
     estimated scf accuracy    <       0.00000050 Ry

     The total energy is the sum of the following terms:

     one-electron contribution =   -6395.63081846 Ry
     hartree contribution      =    3278.64361478 Ry
     xc contribution           =    -334.02248701 Ry
     ewald contribution        =    2606.02799189 Ry
     smearing contrib. (-TS)   =       0.02944789 Ry

     convergence has been achieved in  19 iterations

     negative rho (up, down):  1.358E-03 0.000E+00

     Forces acting on atoms (cartesian axes, Ry/au):

     atom    1 type  1   force =    -0.12177984   -0.09326606   -0.10028756
     atom    2 type  1   force =     0.11977625    0.09620051    0.09828959
     atom    3 type  1   force =    -0.12044873   -0.09686530   -0.09886376
     atom    4 type  1   force =     0.12121237    0.09310321    0.09869350
     atom    5 type  1   force =    -0.00397503   -0.00216308   -0.00007309
     atom    6 type  1   force =    -0.00446921   -0.00242615   -0.00015042
     atom    7 type  1   force =    -0.00378802   -0.00217423   -0.00015885
     atom    8 type  1   force =    -0.00426823   -0.00263499   -0.00023173
     atom    9 type  1   force =    -0.00334517   -0.00192536   -0.00149171
     atom   10 type  1   force =    -0.00463858   -0.00285693   -0.00025863
     atom   11 type  1   force =    -0.00348568   -0.00203110   -0.00172695
     atom   12 type  1   force =    -0.00479091   -0.00258278   -0.00030779
     atom   13 type  2   force =    -0.06397690   -0.01859964    0.01315796
     atom   14 type  2   force =    -0.02851766   -0.00386243   -0.07870167
     atom   15 type  2   force =    -0.06100341   -0.02045295    0.01215365
     atom   16 type  2   force =    -0.03432157   -0.01178427   -0.06879094
     atom   17 type  2   force =     0.00199249    0.00078751   -0.00157313
     atom   18 type  2   force =     0.00097667    0.00072120   -0.00023128
     atom   19 type  2   force =     0.00196523    0.00106724   -0.00155386
     atom   20 type  2   force =     0.00084713    0.00061345   -0.00040147
     atom   21 type  2   force =     0.00180523    0.00077208   -0.00145719
     atom   22 type  2   force =     0.00158423    0.00100495   -0.00186554
     atom   23 type  2   force =     0.00157564    0.00107093   -0.00153573
     atom   24 type  2   force =     0.00132264    0.00075992   -0.00173917
     atom   25 type  2   force =     0.02792762    0.00395452    0.07985926
     atom   26 type  2   force =     0.06417017    0.01892970   -0.01322131
     atom   27 type  2   force =     0.03508511    0.01239568    0.07029078
     atom   28 type  2   force =     0.06116504    0.02037854   -0.01242483
     atom   29 type  2   force =     0.00291527    0.00123406    0.00188987
     atom   30 type  2   force =     0.00307733    0.00164138    0.00183629
     atom   31 type  2   force =     0.00240132    0.00171603    0.00177424
     atom   32 type  2   force =     0.00266804    0.00163543    0.00180791
     atom   33 type  2   force =     0.00140116    0.00091555    0.00014816
     atom   34 type  2   force =     0.00369403    0.00189852    0.00345041
     atom   35 type  2   force =     0.00142162    0.00048864    0.00039458
     atom   36 type  2   force =     0.00382436    0.00233621    0.00330042

     Total force =     0.422366     Total SCF correction =     0.001561
 
     init_run     :      6.23s CPU      6.43s WALL (       1 calls)
     electrons    :    194.20s CPU    202.68s WALL (       1 calls)
     forces       :      3.54s CPU      3.72s WALL (       1 calls)

     Called by init_run:
     wfcinit      :      3.42s CPU      3.48s WALL (       1 calls)
     potinit      :      0.75s CPU      0.76s WALL (       1 calls)
     hinit0       :      0.89s CPU      0.91s WALL (       1 calls)

     Called by electrons:
     c_bands      :    133.07s CPU    135.95s WALL (      19 calls)
     sum_band     :     31.43s CPU     34.49s WALL (      19 calls)
     v_of_rho     :      2.60s CPU      2.74s WALL (      20 calls)
     newd         :      7.85s CPU      9.32s WALL (      20 calls)
     mix_rho      :     19.38s CPU     20.37s WALL (      19 calls)

     Called by c_bands:
     init_us_2    :      3.61s CPU      3.63s WALL (     200 calls)
     cegterg      :    123.21s CPU    126.04s WALL (      95 calls)

     Called by sum_band:
     sum_band:bec :      0.17s CPU      0.17s WALL (      95 calls)
     addusdens    :     12.39s CPU     15.09s WALL (      19 calls)

     Called by *egterg:
     h_psi        :     66.85s CPU     68.52s WALL (     470 calls)
     s_psi        :     13.11s CPU     13.13s WALL (     470 calls)
     g_psi        :      0.36s CPU      0.36s WALL (     370 calls)
     cdiaghg      :     20.39s CPU     20.72s WALL (     465 calls)

     Called by h_psi:
     h_psi:pot    :     66.13s CPU     67.38s WALL (     470 calls)
     h_psi:calbec :     14.47s CPU     15.00s WALL (     470 calls)
     vloc_psi     :     38.43s CPU     38.97s WALL (     470 calls)
     add_vuspsi   :     13.22s CPU     13.40s WALL (     470 calls)

     General routines
     calbec       :     21.10s CPU     21.84s WALL (     585 calls)
     fft          :      3.10s CPU      3.26s WALL (     269 calls)
     ffts         :      8.03s CPU      8.90s WALL (    5685 calls)
     fftw         :     42.96s CPU     43.55s WALL (   69860 calls)
     interpolate  :      0.25s CPU      0.27s WALL (      20 calls)
 
     Parallel routines
     fft_scatt_xy :      5.86s CPU      5.95s WALL (   75814 calls)
     fft_scatt_yz :     23.61s CPU     24.77s WALL (   75814 calls)
 
     PWSCF        :   3m24.67s CPU   3m33.63s WALL

 
   This run was terminated on:  10:54:18  14Oct2021            

=------------------------------------------------------------------------------=
   JOB DONE.
=------------------------------------------------------------------------------=
